<?xml version="1.0"?>
<VTKFile type="UnstructuredGrid"  version="0.1"  >
<UnstructuredGrid>
<Piece  NumberOfPoints="1872" NumberOfCells="7650">
<Points>
<DataArray  type="Float64"  NumberOfComponents="3"  format="ascii">0 0 0  0.0196078431372549 0 0  0.0392156862745098 0 0  0.05882352941176471 0 0  0.07843137254901961 0 0  0.09803921568627451 0 0  0.1176470588235294 0 0  0.1372549019607843 0 0  0.1568627450980392 0 0  0.1764705882352941 0 0  0.196078431372549 0 0  0.2156862745098039 0 0  0.2352941176470588 0 0  0.2549019607843137 0 0  0.2745098039215687 0 0  0.2941176470588235 0 0  0.3137254901960784 0 0  0.3333333333333333 0 0  0.3529411764705883 0 0  0.3725490196078431 0 0  0.392156862745098 0 0  0.4117647058823529 0 0  0.4313725490196079 0 0  0.4509803921568628 0 0  0.4705882352941176 0 0  0.4901960784313725 0 0  0.5098039215686274 0 0  0.5294117647058824 0 0  0.5490196078431373 0 0  0.5686274509803921 0 0  0.5882352941176471 0 0  0.6078431372549019 0 0  0.6274509803921569 0 0  0.6470588235294118 0 0  0.6666666666666666 0 0  0.6862745098039216 0 0  0.7058823529411765 0 0  0.7254901960784313 0 0  0.7450980392156863 0 0  0.7647058823529411 0 0  0.7843137254901961 0 0  0.803921568627451 0 0  0.8235294117647058 0 0  0.8431372549019608 0 0  0.8627450980392157 0 0  0.8823529411764706 0 0  0.9019607843137255 0 0  0.9215686274509803 0 0  0.9411764705882353 0 0  0.9607843137254902 0 0  0.9803921568627451 0 0  1 0 0  0 0.002 0  0.0196078431372549 0.002 0  0.0392156862745098 0.002 0  0.05882352941176471 0.002 0  0.07843137254901961 0.002 0  0.09803921568627451 0.002 0  0.1176470588235294 0.002 0  0.1372549019607843 0.002 0  0.1568627450980392 0.002 0  0.1764705882352941 0.002 0  0.196078431372549 0.002 0  0.2156862745098039 0.002 0  0.2352941176470588 0.002 0  0.2549019607843137 0.002 0  0.2745098039215687 0.002 0  0.2941176470588235 0.002 0  0.3137254901960784 0.002 0  0.3333333333333333 0.002 0  0.3529411764705883 0.002 0  0.3725490196078431 0.002 0  0.392156862745098 0.002 0  0.4117647058823529 0.002 0  0.4313725490196079 0.002 0  0.4509803921568628 0.002 0  0.4705882352941176 0.002 0  0.4901960784313725 0.002 0  0.5098039215686274 0.002 0  0.5294117647058824 0.002 0  0.5490196078431373 0.002 0  0.5686274509803921 0.002 0  0.5882352941176471 0.002 0  0.6078431372549019 0.002 0  0.6274509803921569 0.002 0  0.6470588235294118 0.002 0  0.6666666666666666 0.002 0  0.6862745098039216 0.002 0  0.7058823529411765 0.002 0  0.7254901960784313 0.002 0  0.7450980392156863 0.002 0  0.7647058823529411 0.002 0  0.7843137254901961 0.002 0  0.803921568627451 0.002 0  0.8235294117647058 0.002 0  0.8431372549019608 0.002 0  0.8627450980392157 0.002 0  0.8823529411764706 0.002 0  0.9019607843137255 0.002 0  0.9215686274509803 0.002 0  0.9411764705882353 0.002 0  0.9607843137254902 0.002 0  0.9803921568627451 0.002 0  1 0.002 0  0 0.004 0  0.0196078431372549 0.004 0  0.0392156862745098 0.004 0  0.05882352941176471 0.004 0  0.07843137254901961 0.004 0  0.09803921568627451 0.004 0  0.1176470588235294 0.004 0  0.1372549019607843 0.004 0  0.1568627450980392 0.004 0  0.1764705882352941 0.004 0  0.196078431372549 0.004 0  0.2156862745098039 0.004 0  0.2352941176470588 0.004 0  0.2549019607843137 0.004 0  0.2745098039215687 0.004 0  0.2941176470588235 0.004 0  0.3137254901960784 0.004 0  0.3333333333333333 0.004 0  0.3529411764705883 0.004 0  0.3725490196078431 0.004 0  0.392156862745098 0.004 0  0.4117647058823529 0.004 0  0.4313725490196079 0.004 0  0.4509803921568628 0.004 0  0.4705882352941176 0.004 0  0.4901960784313725 0.004 0  0.5098039215686274 0.004 0  0.5294117647058824 0.004 0  0.5490196078431373 0.004 0  0.5686274509803921 0.004 0  0.5882352941176471 0.004 0  0.6078431372549019 0.004 0  0.6274509803921569 0.004 0  0.6470588235294118 0.004 0  0.6666666666666666 0.004 0  0.6862745098039216 0.004 0  0.7058823529411765 0.004 0  0.7254901960784313 0.004 0  0.7450980392156863 0.004 0  0.7647058823529411 0.004 0  0.7843137254901961 0.004 0  0.803921568627451 0.004 0  0.8235294117647058 0.004 0  0.8431372549019608 0.004 0  0.8627450980392157 0.004 0  0.8823529411764706 0.004 0  0.9019607843137255 0.004 0  0.9215686274509803 0.004 0  0.9411764705882353 0.004 0  0.9607843137254902 0.004 0  0.9803921568627451 0.004 0  1 0.004 0  0 0.006 0  0.0196078431372549 0.006 0  0.0392156862745098 0.006 0  0.05882352941176471 0.006 0  0.07843137254901961 0.006 0  0.09803921568627451 0.006 0  0.1176470588235294 0.006 0  0.1372549019607843 0.006 0  0.1568627450980392 0.006 0  0.1764705882352941 0.006 0  0.196078431372549 0.006 0  0.2156862745098039 0.006 0  0.2352941176470588 0.006 0  0.2549019607843137 0.006 0  0.2745098039215687 0.006 0  0.2941176470588235 0.006 0  0.3137254901960784 0.006 0  0.3333333333333333 0.006 0  0.3529411764705883 0.006 0  0.3725490196078431 0.006 0  0.392156862745098 0.006 0  0.4117647058823529 0.006 0  0.4313725490196079 0.006 0  0.4509803921568628 0.006 0  0.4705882352941176 0.006 0  0.4901960784313725 0.006 0  0.5098039215686274 0.006 0  0.5294117647058824 0.006 0  0.5490196078431373 0.006 0  0.5686274509803921 0.006 0  0.5882352941176471 0.006 0  0.6078431372549019 0.006 0  0.6274509803921569 0.006 0  0.6470588235294118 0.006 0  0.6666666666666666 0.006 0  0.6862745098039216 0.006 0  0.7058823529411765 0.006 0  0.7254901960784313 0.006 0  0.7450980392156863 0.006 0  0.7647058823529411 0.006 0  0.7843137254901961 0.006 0  0.803921568627451 0.006 0  0.8235294117647058 0.006 0  0.8431372549019608 0.006 0  0.8627450980392157 0.006 0  0.8823529411764706 0.006 0  0.9019607843137255 0.006 0  0.9215686274509803 0.006 0  0.9411764705882353 0.006 0  0.9607843137254902 0.006 0  0.9803921568627451 0.006 0  1 0.006 0  0 0.008 0  0.0196078431372549 0.008 0  0.0392156862745098 0.008 0  0.05882352941176471 0.008 0  0.07843137254901961 0.008 0  0.09803921568627451 0.008 0  0.1176470588235294 0.008 0  0.1372549019607843 0.008 0  0.1568627450980392 0.008 0  0.1764705882352941 0.008 0  0.196078431372549 0.008 0  0.2156862745098039 0.008 0  0.2352941176470588 0.008 0  0.2549019607843137 0.008 0  0.2745098039215687 0.008 0  0.2941176470588235 0.008 0  0.3137254901960784 0.008 0  0.3333333333333333 0.008 0  0.3529411764705883 0.008 0  0.3725490196078431 0.008 0  0.392156862745098 0.008 0  0.4117647058823529 0.008 0  0.4313725490196079 0.008 0  0.4509803921568628 0.008 0  0.4705882352941176 0.008 0  0.4901960784313725 0.008 0  0.5098039215686274 0.008 0  0.5294117647058824 0.008 0  0.5490196078431373 0.008 0  0.5686274509803921 0.008 0  0.5882352941176471 0.008 0  0.6078431372549019 0.008 0  0.6274509803921569 0.008 0  0.6470588235294118 0.008 0  0.6666666666666666 0.008 0  0.6862745098039216 0.008 0  0.7058823529411765 0.008 0  0.7254901960784313 0.008 0  0.7450980392156863 0.008 0  0.7647058823529411 0.008 0  0.7843137254901961 0.008 0  0.803921568627451 0.008 0  0.8235294117647058 0.008 0  0.8431372549019608 0.008 0  0.8627450980392157 0.008 0  0.8823529411764706 0.008 0  0.9019607843137255 0.008 0  0.9215686274509803 0.008 0  0.9411764705882353 0.008 0  0.9607843137254902 0.008 0  0.9803921568627451 0.008 0  1 0.008 0  0 0.01 0  0.0196078431372549 0.01 0  0.0392156862745098 0.01 0  0.05882352941176471 0.01 0  0.07843137254901961 0.01 0  0.09803921568627451 0.01 0  0.1176470588235294 0.01 0  0.1372549019607843 0.01 0  0.1568627450980392 0.01 0  0.1764705882352941 0.01 0  0.196078431372549 0.01 0  0.2156862745098039 0.01 0  0.2352941176470588 0.01 0  0.2549019607843137 0.01 0  0.2745098039215687 0.01 0  0.2941176470588235 0.01 0  0.3137254901960784 0.01 0  0.3333333333333333 0.01 0  0.3529411764705883 0.01 0  0.3725490196078431 0.01 0  0.392156862745098 0.01 0  0.4117647058823529 0.01 0  0.4313725490196079 0.01 0  0.4509803921568628 0.01 0  0.4705882352941176 0.01 0  0.4901960784313725 0.01 0  0.5098039215686274 0.01 0  0.5294117647058824 0.01 0  0.5490196078431373 0.01 0  0.5686274509803921 0.01 0  0.5882352941176471 0.01 0  0.6078431372549019 0.01 0  0.6274509803921569 0.01 0  0.6470588235294118 0.01 0  0.6666666666666666 0.01 0  0.6862745098039216 0.01 0  0.7058823529411765 0.01 0  0.7254901960784313 0.01 0  0.7450980392156863 0.01 0  0.7647058823529411 0.01 0  0.7843137254901961 0.01 0  0.803921568627451 0.01 0  0.8235294117647058 0.01 0  0.8431372549019608 0.01 0  0.8627450980392157 0.01 0  0.8823529411764706 0.01 0  0.9019607843137255 0.01 0  0.9215686274509803 0.01 0  0.9411764705882353 0.01 0  0.9607843137254902 0.01 0  0.9803921568627451 0.01 0  1 0.01 0  0 0 0.006  0.0196078431372549 0 0.006  0.0392156862745098 0 0.006  0.05882352941176471 0 0.006  0.07843137254901961 0 0.006  0.09803921568627451 0 0.006  0.1176470588235294 0 0.006  0.1372549019607843 0 0.006  0.1568627450980392 0 0.006  0.1764705882352941 0 0.006  0.196078431372549 0 0.006  0.2156862745098039 0 0.006  0.2352941176470588 0 0.006  0.2549019607843137 0 0.006  0.2745098039215687 0 0.006  0.2941176470588235 0 0.006  0.3137254901960784 0 0.006  0.3333333333333333 0 0.006  0.3529411764705883 0 0.006  0.3725490196078431 0 0.006  0.392156862745098 0 0.006  0.4117647058823529 0 0.006  0.4313725490196079 0 0.006  0.4509803921568628 0 0.006  0.4705882352941176 0 0.006  0.4901960784313725 0 0.006  0.5098039215686274 0 0.006  0.5294117647058824 0 0.006  0.5490196078431373 0 0.006  0.5686274509803921 0 0.006  0.5882352941176471 0 0.006  0.6078431372549019 0 0.006  0.6274509803921569 0 0.006  0.6470588235294118 0 0.006  0.6666666666666666 0 0.006  0.6862745098039216 0 0.006  0.7058823529411765 0 0.006  0.7254901960784313 0 0.006  0.7450980392156863 0 0.006  0.7647058823529411 0 0.006  0.7843137254901961 0 0.006  0.803921568627451 0 0.006  0.8235294117647058 0 0.006  0.8431372549019608 0 0.006  0.8627450980392157 0 0.006  0.8823529411764706 0 0.006  0.9019607843137255 0 0.006  0.9215686274509803 0 0.006  0.9411764705882353 0 0.006  0.9607843137254902 0 0.006  0.9803921568627451 0 0.006  1 0 0.006  0 0.002 0.006  0.0196078431372549 0.002 0.006  0.0392156862745098 0.002 0.006  0.05882
[...]
<PointData  Vectors="Eigenvector"> 
<DataArray  type="Float64"  Name="Eigenvector"  NumberOfComponents="3" format="ascii">3.2951120611176895e-19 1.7809184597776301e-19 4.8759263829786125e-20  1.9307974785609731e-05 3.8006617264108779e-05 -8.4571242650147014e-10  3.8076580301389372e-05 1.5071749209598394e-04 -1.9358988566600145e-09  5.6167357075742455e-05 3.3574760327825418e-04 -3.2263981193395255e-09  7.3439966487928493e-05 5.9016174649508240e-04 -4.5945625240966153e-09  8.9760421522947048e-05 9.1048651165823809e-04 -6.0221302743879135e-09  1.0500211531731034e-04 1.2927371956217685e-03 -7.4967710320435466e-09  1.1904680934127098e-04 1.7324487012126996e-03 -9.0065898312399589e-09  1.3178555085538413e-04 2.2247101745322376e-03 -1.0539389243716493e-08  1.4311951814504278e-04 2.7642031011898939e-03 -1.2082706586941122e-08  1.5296078713481062e-04 3.3452425650688433e-03 -1.3623901018055690e-08  1.6123301346556817e-04 3.9618213494821385e-03 -1.5150252598972044e-08  1.6787202474549201e-04 4.6076565386035453e-03 -1.6649061549867785e-08  1.7282631837028877e-04 5.2762382576711118e-03 -1.8107748626777125e-08  1.7605746105588195e-04 5.9608801738186314e-03 -1.9513954112651293e-08  1.7754038699148219e-04 6.6547713658041286e-03 -2.0855631941531949e-08  1.7726359228400975e-04 7.3510291602399431e-03 -2.2121148181374342e-08  1.7522922419528164e-04 8.0427525244298765e-03 -2.3299374900058996e-08  1.7145306449766208e-04 8.7230756016273107e-03 -2.4379777061398380e-08  1.6596440705050227e-04 9.3852209734667028e-03 -2.5352492327367652e-08  1.5880583053826233e-04 1.0022552236310411e-02 -2.6208410438640327e-08  1.5003286816263534e-04 1.0628625483630772e-02 -2.6939247985157448e-08  1.3971357684324556e-04 1.1197239295083782e-02 -2.7537609992011040e-08  1.2792800926970176e-04 1.1722482844521622e-02 -2.7997057190053912e-08  1.1476759289129534e-04 1.2198781753705021e-02 -2.8312152812294953e-08  1.0033442064960624e-04 1.2620941336002273e-02 -2.8478508375616577e-08  8.4740458956762804e-05 1.2984186894503128e-02 -2.8492814983566436e-08  6.8106679120444587e-05 1.3284200761989343e-02 -2.8352874634233097e-08  5.0562118937148794e-05 1.3517155795598101e-02 -2.8057625515213020e-08  3.2242881647481889e-05 1.3679745066215466e-02 -2.7607142964341971e-08  1.3291080105001461e-05 1.3769207512219833e-02 -2.7002647045167460e-08  -6.1462656791769558e-06 1.3783349358607739e-02 -2.6246491289370281e-08  -2.5918369051203268e-05 1.3720561135359396e-02 -2.5342151790123683e-08  -4.5871846427786817e-05 1.3579830163058812e-02 -2.4294200547025838e-08  -6.5851907190280894e-05 1.3360748408921220e-02 -2.3108272008340106e-08  -8.5703554510966728e-05 1.3063515652149639e-02 -2.1791020300032000e-08  -1.0527278774324239e-04 1.2688937934080043e-02 -2.0350073706642749e-08  -1.2440779707962533e-04 1.2238421305287897e-02 -1.8793974850506809e-08  -1.4296014128571915e-04 1.1713960918013277e-02 -1.7132118618828883e-08  -1.6078589920030627e-04 1.1118125548414634e-02 -1.5374677388718226e-08  -1.7774678616561086e-04 1.0454037669282703e-02 -1.3532533759894340e-08  -1.9371122682981497e-04 9.7253492272730054e-03 -1.1617191036382911e-08  -2.0855537584129816e-04 8.9362133126679767e-03 -9.6406898722078354e-09  -2.2216407859790058e-04 8.0912519414895728e-03 -7.6155183443284738e-09  -2.3443176458592531e-04 7.1955201998263702e-03 -5.5545175775393415e-09  -2.4526326631781151e-04 6.2544670285867299e-03 -3.4707786083294981e-09  -2.5457455761833847e-04 5.2738929529596032e-03 -1.3775224218728162e-09  -2.6229340550801652e-04 4.2599050842415933e-03 7.1214929561618476e-10  -2.6835992969678822e-04 3.2188697419361632e-03 2.7853806850101510e-09  -2.7272707500224401e-04 2.1573630742074928e-03 4.8654249750507743e-09  -2.7536077082725927e-04 1.0821212925901616e-03 6.5229162819958743e-09  -2.7621243583097230e-04 5.6120690841411827e-19 3.1678462552795319e-20  5.6106921236264718e-19 5.5805746978016917e-20 1.9984966260311240e-19  1.1576805956288005e-05 3.8006695086703495e-05 -5.9949914165435093e-10  2.2835973456160570e-05 1.5071758149435481e-04 -1.4095248602333531e-09  3.3688421862819248e-05 3.3574771797175817e-04 -2.3891740443202958e-09  4.4050064306150249e-05 5.9016188564631580e-04 -3.4562899825036042e-09  5.3840522341061253e-05 9.1048667417139640e-04 -4.5983192879444440e-09  6.2983845863655733e-05 1.2927373802356014e-03 -5.8053615352325132e-09  7.1409104915499526e-05 1.7324489064949587e-03 -7.0674832002376290e-09  7.9050939963624009e-05 2.2247103988904944e-03 -8.3742636161408008e-09  8.5850068946168734e-05 2.7642033428837243e-03 -9.7148441046113512e-09  9.1753747155266178e-05 3.3452428222233389e-03 -1.1078006839720074e-08  9.6716176407625162e-05 3.9618216201024962e-03 -1.2452263026478600e-08  1.0069886032955253e-04 4.6076568205904722e-03 -1.3825942827606340e-08  1.0367090299433113e-04 5.2762385488370417e-03 -1.5187287626675709e-08  1.0560924859834106e-04 5.9608804719049205e-03 -1.6524542624183377e-08  1.0649886032022166e-04 6.6547716684984349e-03 -1.7826047741620083e-08  1.0633283696679769e-04 7.3510294651942254e-03 -1.9080331226530060e-08  1.0511246650693893e-04 8.0427528292783285e-03 -2.0276202082533912e-08  1.0284721608772122e-04 8.7230759040051609e-03 -2.1402837623589885e-08  9.9554658594886231e-05 9.3852212710282806e-03 -2.2449866710020143e-08  9.5260336322684240e-05 1.0022552526747558e-02 -2.3407453089632889e-08  8.9997562827069644e-05 1.0628625764690267e-02 -2.4266374016501986e-08  8.3807164495542885e-05 1.1197239564585466e-02 -2.5018092643219677e-08  7.6737163838382037e-05 1.1722483100374770e-02 -2.5654829323652880e-08  6.8842406953308253e-05 1.2198781993924971e-02 -2.6169622047356590e-08  6.0184138045027475e-05 1.2620941558725477e-02 -2.6556382255029486e-08  5.0829524303160096e-05 1.2984187098001978e-02 -2.6809942573455259e-08  4.0851134854478711e-05 1.3284200944685246e-02 -2.6926100433080886e-08  3.0326377823862302e-05 1.3517155956073645e-02 -2.6901655913714317e-08  1.9336899822066514e-05 1.3679745203225955e-02 -2.6734435115289462e-08  7.9679525653207353e-06 1.3769207624702464e-02 -2.6423310515783664e-08  -3.6922684744429694e-06 1.3783349445689860e-02 -2.5968210202155933e-08  -1.5553308248988737e-05 1.3720561196365689e-02 -2.5370125797606240e-08  -2.7523153831456766e-05 1.3579830197515904e-02 -2.4631103147729673e-08  -3.9508948219192206e-05 1.3360748416561980e-02 -2.3754229627682743e-08  -5.1417710693549122e-05 1.3063515632914755e-02 -2.2743612533299399e-08  -6.3157058120473880e-05 1.2688937888118845e-02 -2.1604350607913649e-08  -7.4635921611813780e-05 1.2238421232957328e-02 -2.0342496715539745e-08  -8.5765253031069407e-05 1.1713960819873824e-02 -1.8965012065875074e-08  -9.6458715767495896e-05 1.1118125425228083e-02 -1.7479715245116727e-08  -1.0663335446954422e-04 1.0454037522004732e-02 -1.5895226620724835e-08  -1.1621023860490287e-04 9.7253490570460826e-03 -1.4220901336140228e-08  -1.2511507476428897e-04 8.9362131208126812e-03 -1.2466760994086934e-08  -1.3327878300393146e-04 8.0912517294944326e-03 -1.0643418749316274e-08  -1.4063803274786543e-04 7.1955199693359752e-03 -8.7619999347276884e-09  -1.4713573406171122e-04 6.2544667813892165e-03 -6.8340542377722449e-09  -1.5272148053801555e-04 5.2738926909736156e-03 -4.8714571281038273e-09  -1.5735194033654874e-04 4.2599048094798505e-03 -2.8862210515238916e-09  -1.6099119184111101e-04 3.2188694568777111e-03 -8.9006683696602362e-10  -1.6361099677216897e-04 2.1573627794324811e-03 1.1108774036532924e-09  -1.6519096163554873e-04 1.0821208764006714e-03 2.9033796745970901e-09  -1.6570395077345116e-04 -9.1013462184367076e-20 4.2787323488507773e-19  1.2962831963524304e-20 1.2126449612445082e-19 1.3704673324935192e-19  3.8579819648199859e-06 3.8006994743913958e-05 -4.1261888364417065e-10  7.6108307400573960e-06 1.5071802042399712e-04 -9.5640203896762288e-10  1.1228086639237119e-05 3.3574824791027344e-04 -1.6359731084502509e-09  1.4681751314202062e-05 5.9016250398993603e-04 -2.4119511921539112e-09  1.7945034004259615e-05 9.1048737608152852e-04 -3.2776270096955112e-09  2.0992619554456209e-05 1.2927381602664348e-03 -4.2254548547777440e-09  2.3800866168205207e-05 1.7324497585951251e-03 -5.2473985986715325e-09  2.6347988727282451e-05 2.2247113164498627e-03 -6.3347558474946834e-09  2.8614227802936448e-05 2.7642043187842951e-03 -7.4782208056223517e-09  3.0582002940027663e-05 3.3452438488945596e-03 -8.6679550525052075e-09  3.2236049038487160e-05 3.9618226895798917e-03 -9.8936651981007254e-09  3.3563534774202620e-05 4.6076579245776369e-03 -1.1144683893668325e-08  3.4554162138475526e-05 5.2762396787696701e-03 -1.2410053936871130e-08  3.5200246325245623e-05 5.9608816190175424e-03 -1.3678614887336898e-08  3.5496775347166666e-05 6.6547728238922806e-03 -1.4939090572460217e-08  3.5441448915249058e-05 7.3510306199062979e-03 -1.6180178098888063e-08  3.5034696282638416e-05 8.0427539743509659e-03 -1.7390638798816206e-08  3.4279672917327222e-05 8.7230770305552971e-03 -1.8559385745524801e-08  3.3182236024077156e-05 9.3852223703166891e-03 -1.9675571195193193e-08  3.1750899104290388e-05 1.0022553590246964e-02 -2.0728672633027884e-08  2.9996765911551086e-05 1.0628626784149787e-02 -2.1708576308359489e-08  2.7933444314268542e-05 1.1197240532097067e-02 -2.2605657944381207e-08  2.5576940733161882e-05 1.1722484008432661e-02 -2.3410859866924032e-08  2.2945535971561442e-05 1.2198782835485124e-02 -2.4115763124592604e-08  2.0059643397566933e-05 1.2620942327259226e-02 -2.4712653643478707e-08  1.6941650580973729e-05 1.2984187787547714e-02 -2.5194585058144936e-08  1.3615745622100877e-05 1.3284201549893732e-02 -2.5555434467278446e-08  1.0107729517723069e-05 1.3517156472249834e-02 -2.5789953085531874e-08  6.4448160041032920e-06 1.3679745626365807e-02 -2.5893808874291118e-08  2.6554204438330571e-06 1.3769207951523425e-02 -2.5863621315822935e-08  -1.2310606100318944e-06 1.3783349673656433e-02 -2.5696990412506460e-08  -5.1844774579953119e-06 1.3720561323709749e-02 -2.5392519819863171e-08  -9.1741611380809489e-06 1.3579830223249422e-02 -2.4949827736490151e-08  -1.3169161344966723e-05 1.3360748340485441e-02 -2.4369552385605736e-08  -1.7138486533806503e-05 1.3063515455618411e-02 -2.3653350521900355e-08  -2.1051344338367335e-05 1.2688937610977977e-02 -2.2803886477387941e-08  -2.4877380442354471e-05 1.2238420858122869e-02 -2.1824814981134435e-08  -2.8586914065669157e-05 1.1713960350252017e-02 -2.0720753609440756e-08  -3.2151168207851461e-05 1.1118124864463020e-02 -1.9497250913655936e-08  -3.5542492878364722e-05 1.0454036874446545e-02 -1.8160745854009277e-08  -3.8734579602182179e-05 9.7253483277182241e-03 -1.6718520467319729e-08  -4.1702665508064776e-05 8.9362123153731467e-03 -1.5178646348557680e-08  -4.4423725430347938e-05 8.0912508541914237e-03 -1.3549924591499531e-08  -4.6876650531380239e-05 7.1955190309597929e-03 -1.1841820632087112e-08  -4.9042412049220132e-05 6.2544657872193226e-03 -1.0064392024445031e-08  -5.0904208916047303e-05 5.2738916487233417e-03 -8.2282097241182589e-09  -5.2447598089064244e-05 4.2599037272132009e-03 -6.3442500237463138e-09  -5.3660606493350853e-05 3.2188683432156063e-03 -4.4233748937415545e-09  -5.4533817356530482e-05 2.1573616455427195e-03 -2.4817937883922025e-09  -5.5060480116822063e-05 1.0821195846574207e-03 -6.1830751476379899e-10  -5.5232577863383157e-05 5.6423336791128313e-19 -9.2939306624494979e-20  4.3312182381281285e-19 5.1141333404450409e-19 -2.0996175207058642e-20  -3.8569790370609319e-06 3.8007645544239487e-05 -2.7258938246558600e-10  -7.6095425716865669e-06 1.5071885894208753e-04 -5.4762601095587731e-10  -1.1226512822708649e-05 3.3574925319675559e-04 -9.3263104344622054e-10  -1.4679905384688065e-05 5.9016367001056048e-04 -1.4228070708358798e-09  -1.7942929151035434e-05 9.1048869374443493e-04 -2.0170242145407923e-09  -2.0990271056702536e-05 1.2927396193493194e-03 -2.7100667116667991e-09  -2.3798291022787030e-05 1.7324513477789156e-03 -3.4957611574428995e-09  -2.6345205538540468e-05 2.2247130234063941e-03 -4.3670928491247231e-09  -2.8611256639098330e-05 2.7642061302717929e-03 -5.3162825218418589e-09  -3.0578865179326521e-05 3.3452457508603159e-03 -6.3348491367891944e-09  -3.2232767205339974e-05 3.9618246672692070e-03 -7.4136771883488822e-09  -3.3560132366436629e-05 4.6076599626486371e-03 -8.5430888759957987e-09  -3.4550663447376341e-05 5.2762417614118182e-03 -9.7129202374169261e-09  -3.5196676249301606e-05 5.9608837300744715e-03 -1.0912601878263108e-08  -3.5493159201091587e-05 6.6547749469876008e-03 -1.2131242803108691e-08  -3.5437812236135792e-05 7.3510327385697570e-03 -1.3357715489509113e-08  -3.5031064634586478e-05 8.0427560721472047e-03 -1.4580744283352323e-08  -3.4276071695334425e-05 8.7230790912102354e-03 -1.5788993942659180e-08  -3.3178690259620295e-05 9.3852243778447340e-03 -1.6971160278239909e-08  -3.1747433274044097e-05 1.0022555529075031e-02 -1.8116059021329266e-08  -2.9993403750731059e-05 1.0628628639236734e-02 -1.9212714572580733e-08  -2.7930208635476725e-05 1.1197242289052334e-02 -2.0250447770899273e-08  -2.5573853252726013e-05 1.1722485653626168e-02 -2.1218959658247346e-08  -2.2942617143289473e-05 1.2198784356154483e-02 -2.2108414091409858e-08  -2.0056912257791076e-05 1.2620943711607551e-02 -2.2909514888577490e-08  -1.6939124604366523e-05 1.2984189024836215e-02 -2.3613582324063025e-08  -1.3613440589419796e-05 1.3284202630523996e-02 -2.4212621668582681e-08  -1.0105659397028939e-05 1.3517157387838532e-02 -2.4699385860713203e-08  -6.4429928451590035e-06 1.3679746369810498e-02 -2.5067436591567630e-08  -2.6538542881942127e-06 1.3769208517056715e-02 -2.5311193712651914e-08  1.2323618020729933e-06 1.3783350056891174e-02 -2.5425983917697088e-08  5.1855078660979798e-06 1.3720561521673044e-02 -2.5408076918751203e-08  9.1749171242044533e-06 1.3579830234405505e-02 -2.5254718139065038e-08  1.3169641477212456e-05 1.3360748164747730e-02 -2.4964151175261532e-08  1.7138691593623405e-05 1.3063515094350600e-02 -2.4535635344903996e-08  2.1051277310282375e-05 1.2688937066982348e-02 -2.3969453047433782e-08  2.4877046487179272e-05 1.2238420135620043e-02 -2.3266911117002895e-08  2.8586320476676881e-05 1.1713959454846315e-02 -2.2430332568686406e-08  3.2150324350139394e-05 1.1118123803100703e-02 -2.1463041398483482e-08  3.5541410111594719e-05 1.0454035655361384e-02 -2.0369338755702242e-08  3.8733271188418554e-05 9.7253469603673856e-03 -1.9154473704098006e-08  4.1701146504807132e-05 8.9362108103639461e-03 -1.7824604663084008e-08  4.4422012569485392e-05 8.0912492231992525e-03 -1.6386753557806874e-08  4.6874762084928175e-05 7.1955172866371318e-03 -1.4848755198153421e-08  4.9040367683239600e-05 6.2544639430978438e-03 -1.3219199952410303e-08  5.0902029533533965e-05 5.2738897191095639e-03 -1.1507374570808548e-08  5.2445305676526900e-05 4.2599017270611743e-03 -9.7232321606394659e-09  5.3658223902860649e-05 3.2188662880876999e-03 -7.8770283227363172e-09  5.4531375486906999e-05 2.1573595552094233e-03 -5.9865906431854763e-09  5.5057891922059862e-05 1.0821173096580584e-03 -4.0655229435074213e-09  5.5228081880970802e-05 -5.3002936766589170e-20 4.1499668354708607e-19  2.0568498485314755e-19 8.9551866707515601e-20 5.9678887756493782e-20  -1.1575972356774850e-05 3.8008498945750593e-05 -2.3297788845109310e-10  -2.2834987854520422e-05 1.5071987723079265e-04 -2.4941890122055598e-10  -3.3687227476218002e-05 3.3575047238124962e-04 -3.5830670694181774e-10  -4.4048672471476862e-05 5.9016508145417579e-04 -5.7990071792878476e-10  -5.3838942748534290e-05 9.1049028645421475e-04 -9.1873913630496504e-10  -6.2982089714687435e-05 1.2927413809695005e-03 -1.3718173141944378e-09  -7.1407184612162867e-05 1.7324532646436164e-03 -1.9347092826757634e-09  -7.9048869030692439e-05 2.2247150806454148e-03 -2.6019837269159460e-09  -8.5847861926917378e-05 2.7642083119259722e-03 -3.3672950511744052e-09  -9.1751419500457507e-05 3.3452480400053284e-03 -4.2234389652333773e-09  -9.6713744357632979e-05 3.9618270461466805e-03 -5.1624100707946028e-09  -1.0069634079040605e-04 4.6076624128047021e-03 -6.1754654428417678e-09  -1.0366831340882458e-04 5.2762442638389882e-03 -7.2531937473751328e-09  -1.0560660681293149e-04 5.9608862653599227e-03 -8.3855900339120557e-09  -1.0649618444876993e-04 6.6547774954639136e-03 -9.5621359538170359e-09  -1.0633014525259200e-04 7.3510352804668179e-03 -1.0771881589213537e-08  -1.0510977718386862e-04 8.0427585877461145e-03 -1.2003530460081108e-08  -1.0284454724105162e-04 8.7230815609959760e-03 -1.3245529851558635e-08  -9.9552028023557716e-05 9.3852267826577060e-03 -1.4486163660926698e-08  -9.5257761404124984e-05 1.0022557850260287e-02 -1.5713643941473643e-08  -8.9995060385648408e-05 1.0628630858786958e-02 -1.6916205116976957e-08  -8.3804750674921989e-05 1.1197244389749457e-02 -1.8082197039202319e-08  -7.6734853979662485e-05 1.1722487619173766e-02 -1.9200175742023354e-08  -6.8840215478334650e-05 1.2198786171304758e-02 -2.0258995153978448e-08  -6.0182078347998940e-05 1.2620945362279298e-02 -2.1247894893233554e-08  -5.0827608650484037e-05 1.2984190498224550e-02 -2.2156589018379883e-08  -4.0849374292680964e-05 1.3284203915198793e-02 -2.2975347023281895e-08  -3.0324782097665944e-05 1.3517158473833838e-02 -2.3695066752841837e-08  -1.9335477301510368e-05 1.3679747248701669e-02 -2.4307353290433758e-08  -7.9667101844039788e-06 1.3769209182025562e-02 -2.4804581755712755e-08  3.6933252666845240e-06 1.3783350502779476e-02 -2.5179964110369336e-08  1.5554175527758764e-05 1.3720561745021710e-02 -2.5427597995910825e-08  2.7523829223748888e-05 1.3579830233481768e-02 -2.5542518973725235e-08  3.9509430917929165e-05 1.3360747939558815e-02 -2.5520739448410736e-08  5.1418001459796180e-05 1.3063514646643723e-02 -2.5359283431652172e-08  6.3157159273488948e-05 1.2688936400230314e-02 -2.5056211639655079e-08  7.4635837007256276e-05 1.2238419254995412e-02 -2.4610639252923696e-08  8.5764988027420324e-05 1.1713958367180671e-02 -2.4022746638381794e-08  9.6458277180411995e-05 1.1118122516831674e-02 -2.3293779021801912e-08  1.0663275051434031e-04 1.0454034180467302e-02 -2.2426038390682122e-08  1.1620947882881530e-04 9.7253453082898362e-03 -2.1422871614926380e-08  1.2511416996830439e-04 8.9362089939193333e-03 -2.0288645320730312e-08  1.3327774515467029e-04 8.0912472564783466e-03 -1.9028713786929579e-08  1.4063687488051306e-04 7.1955151848971171e-03 -1.7649381658032637e-08  1.4713447017439905e-04 6.2544617226432007e-03 -1.6157860698922020e-08  1.5272012547822329e-04 5.2738873971657696e-03 -1.4562229501369183e-08  1.5735050968844214e-04 4.2598993216345308e-03 -1.2871471917327620e-08  1.6098970208595090e-04 3.2188638177857165e-03 -1.1095565049953812e-08  1.6360946280665449e-04 2.1573570412752141e-03 -9.2484834319942854e-09  1.6518936665398335e-04 1.0821146267659021e-03 -7.3050443852332246e-09  1.6570210653222967e-04 -1.0456558280875241e-19 -6.1537394521129870e-20  1.8388877566351002e-20 2.5047314645170040e-20 1.4984288591509105e-20  -1.9307862141671554e-05 3.8008975696118239e-05 -2.2863711515438281e-10  -3.8076609794079055e-05 1.5072040670250999e-04 2.8815526342579671e-11  -5.6167413569163127e-05 3.3575111203107622e-04 1.8624046930847742e-10  -7.3440053493155667e-05 5.9016582678254035e-04 2.2502939137759840e-10  -8.9760537307687269e-05 9.1049113163210857e-04 1.3362653087456863e-10  -1.0500225792737401e-04 1.2927423194401032e-03 -8.7075588329336349e-11  -1.1904697644974876e-04 1.7324542891266621e-03 -4.3433824176454302e-10  -1.3178573979451104e-04 2.2247161831933930e-03 -9.0425776880420613e-10  -1.4311972592768191e-04 2.7642094839857743e-03 -1.4918702132999937e-09  -1.5296101047945066e-04 3.3452492724846024e-03 -2.1912001192258406e-09  -1.6123324882371572e-04 3.9618283294842850e-03 -2.9953087438343261e-09  -1.6787226833130608e-04 4.6076637370452188e-03 -3.8963490900766478e-09  -1.7282656619214951e-04 5.2762456187094029e-03 -4.8856289564333193e-09  -1.7605770894953563e-04 5.9608876403497253e-03 -5.9536794404497113e-09  -1.7754063065462310e-04 6.6547788799065574e-03 -7.0903319837811704e-09  -1.7726382731217559e-04 7.3510366636223576e-03 -8.2847973325826933e-09  -1.7522944611864986e-04 8.0427599588845811e-03 -9.5257467757803642e-09  -1.714532688179