<?xml version="1.0"?>
<VTKFile type="UnstructuredGrid"  version="0.1"  >
<UnstructuredGrid>
<Piece  NumberOfPoints="1872" NumberOfCells="7650">
<Points>
<DataArray  type="Float64"  NumberOfComponents="3"  format="ascii">0 0 0  0.0196078431372549 0 0  0.0392156862745098 0 0  0.05882352941176471 0 0  0.07843137254901961 0 0  0.09803921568627451 0 0  0.1176470588235294 0 0  0.1372549019607843 0 0  0.1568627450980392 0 0  0.1764705882352941 0 0  0.196078431372549 0 0  0.2156862745098039 0 0  0.2352941176470588 0 0  0.2549019607843137 0 0  0.2745098039215687 0 0  0.2941176470588235 0 0  0.3137254901960784 0 0  0.3333333333333333 0 0  0.3529411764705883 0 0  0.3725490196078431 0 0  0.392156862745098 0 0  0.4117647058823529 0 0  0.4313725490196079 0 0  0.4509803921568628 0 0  0.4705882352941176 0 0  0.4901960784313725 0 0  0.5098039215686274 0 0  0.5294117647058824 0 0  0.5490196078431373 0 0  0.5686274509803921 0 0  0.5882352941176471 0 0  0.6078431372549019 0 0  0.6274509803921569 0 0  0.6470588235294118 0 0  0.6666666666666666 0 0  0.6862745098039216 0 0  0.7058823529411765 0 0  0.7254901960784313 0 0  0.7450980392156863 0 0  0.7647058823529411 0 0  0.7843137254901961 0 0  0.803921568627451 0 0  0.8235294117647058 0 0  0.8431372549019608 0 0  0.8627450980392157 0 0  0.8823529411764706 0 0  0.9019607843137255 0 0  0.9215686274509803 0 0  0.9411764705882353 0 0  0.9607843137254902 0 0  0.9803921568627451 0 0  1 0 0  0 0.002 0  0.0196078431372549 0.002 0  0.0392156862745098 0.002 0  0.05882352941176471 0.002 0  0.07843137254901961 0.002 0  0.09803921568627451 0.002 0  0.1176470588235294 0.002 0  0.1372549019607843 0.002 0  0.1568627450980392 0.002 0  0.1764705882352941 0.002 0  0.196078431372549 0.002 0  0.2156862745098039 0.002 0  0.2352941176470588 0.002 0  0.2549019607843137 0.002 0  0.2745098039215687 0.002 0  0.2941176470588235 0.002 0  0.3137254901960784 0.002 0  0.3333333333333333 0.002 0  0.3529411764705883 0.002 0  0.3725490196078431 0.002 0  0.392156862745098 0.002 0  0.4117647058823529 0.002 0  0.4313725490196079 0.002 0  0.4509803921568628 0.002 0  0.4705882352941176 0.002 0  0.4901960784313725 0.002 0  0.5098039215686274 0.002 0  0.5294117647058824 0.002 0  0.5490196078431373 0.002 0  0.5686274509803921 0.002 0  0.5882352941176471 0.002 0  0.6078431372549019 0.002 0  0.6274509803921569 0.002 0  0.6470588235294118 0.002 0  0.6666666666666666 0.002 0  0.6862745098039216 0.002 0  0.7058823529411765 0.002 0  0.7254901960784313 0.002 0  0.7450980392156863 0.002 0  0.7647058823529411 0.002 0  0.7843137254901961 0.002 0  0.803921568627451 0.002 0  0.8235294117647058 0.002 0  0.8431372549019608 0.002 0  0.8627450980392157 0.002 0  0.8823529411764706 0.002 0  0.9019607843137255 0.002 0  0.9215686274509803 0.002 0  0.9411764705882353 0.002 0  0.9607843137254902 0.002 0  0.9803921568627451 0.002 0  1 0.002 0  0 0.004 0  0.0196078431372549 0.004 0  0.0392156862745098 0.004 0  0.05882352941176471 0.004 0  0.07843137254901961 0.004 0  0.09803921568627451 0.004 0  0.1176470588235294 0.004 0  0.1372549019607843 0.004 0  0.1568627450980392 0.004 0  0.1764705882352941 0.004 0  0.196078431372549 0.004 0  0.2156862745098039 0.004 0  0.2352941176470588 0.004 0  0.2549019607843137 0.004 0  0.2745098039215687 0.004 0  0.2941176470588235 0.004 0  0.3137254901960784 0.004 0  0.3333333333333333 0.004 0  0.3529411764705883 0.004 0  0.3725490196078431 0.004 0  0.392156862745098 0.004 0  0.4117647058823529 0.004 0  0.4313725490196079 0.004 0  0.4509803921568628 0.004 0  0.4705882352941176 0.004 0  0.4901960784313725 0.004 0  0.5098039215686274 0.004 0  0.5294117647058824 0.004 0  0.5490196078431373 0.004 0  0.5686274509803921 0.004 0  0.5882352941176471 0.004 0  0.6078431372549019 0.004 0  0.6274509803921569 0.004 0  0.6470588235294118 0.004 0  0.6666666666666666 0.004 0  0.6862745098039216 0.004 0  0.7058823529411765 0.004 0  0.7254901960784313 0.004 0  0.7450980392156863 0.004 0  0.7647058823529411 0.004 0  0.7843137254901961 0.004 0  0.803921568627451 0.004 0  0.8235294117647058 0.004 0  0.8431372549019608 0.004 0  0.8627450980392157 0.004 0  0.8823529411764706 0.004 0  0.9019607843137255 0.004 0  0.9215686274509803 0.004 0  0.9411764705882353 0.004 0  0.9607843137254902 0.004 0  0.9803921568627451 0.004 0  1 0.004 0  0 0.006 0  0.0196078431372549 0.006 0  0.0392156862745098 0.006 0  0.05882352941176471 0.006 0  0.07843137254901961 0.006 0  0.09803921568627451 0.006 0  0.1176470588235294 0.006 0  0.1372549019607843 0.006 0  0.1568627450980392 0.006 0  0.1764705882352941 0.006 0  0.196078431372549 0.006 0  0.2156862745098039 0.006 0  0.2352941176470588 0.006 0  0.2549019607843137 0.006 0  0.2745098039215687 0.006 0  0.2941176470588235 0.006 0  0.3137254901960784 0.006 0  0.3333333333333333 0.006 0  0.3529411764705883 0.006 0  0.3725490196078431 0.006 0  0.392156862745098 0.006 0  0.4117647058823529 0.006 0  0.4313725490196079 0.006 0  0.4509803921568628 0.006 0  0.4705882352941176 0.006 0  0.4901960784313725 0.006 0  0.5098039215686274 0.006 0  0.5294117647058824 0.006 0  0.5490196078431373 0.006 0  0.5686274509803921 0.006 0  0.5882352941176471 0.006 0  0.6078431372549019 0.006 0  0.6274509803921569 0.006 0  0.6470588235294118 0.006 0  0.6666666666666666 0.006 0  0.6862745098039216 0.006 0  0.7058823529411765 0.006 0  0.7254901960784313 0.006 0  0.7450980392156863 0.006 0  0.7647058823529411 0.006 0  0.7843137254901961 0.006 0  0.803921568627451 0.006 0  0.8235294117647058 0.006 0  0.8431372549019608 0.006 0  0.8627450980392157 0.006 0  0.8823529411764706 0.006 0  0.9019607843137255 0.006 0  0.9215686274509803 0.006 0  0.9411764705882353 0.006 0  0.9607843137254902 0.006 0  0.9803921568627451 0.006 0  1 0.006 0  0 0.008 0  0.0196078431372549 0.008 0  0.0392156862745098 0.008 0  0.05882352941176471 0.008 0  0.07843137254901961 0.008 0  0.09803921568627451 0.008 0  0.1176470588235294 0.008 0  0.1372549019607843 0.008 0  0.1568627450980392 0.008 0  0.1764705882352941 0.008 0  0.196078431372549 0.008 0  0.2156862745098039 0.008 0  0.2352941176470588 0.008 0  0.2549019607843137 0.008 0  0.2745098039215687 0.008 0  0.2941176470588235 0.008 0  0.3137254901960784 0.008 0  0.3333333333333333 0.008 0  0.3529411764705883 0.008 0  0.3725490196078431 0.008 0  0.392156862745098 0.008 0  0.4117647058823529 0.008 0  0.4313725490196079 0.008 0  0.4509803921568628 0.008 0  0.4705882352941176 0.008 0  0.4901960784313725 0.008 0  0.5098039215686274 0.008 0  0.5294117647058824 0.008 0  0.5490196078431373 0.008 0  0.5686274509803921 0.008 0  0.5882352941176471 0.008 0  0.6078431372549019 0.008 0  0.6274509803921569 0.008 0  0.6470588235294118 0.008 0  0.6666666666666666 0.008 0  0.6862745098039216 0.008 0  0.7058823529411765 0.008 0  0.7254901960784313 0.008 0  0.7450980392156863 0.008 0  0.7647058823529411 0.008 0  0.7843137254901961 0.008 0  0.803921568627451 0.008 0  0.8235294117647058 0.008 0  0.8431372549019608 0.008 0  0.8627450980392157 0.008 0  0.8823529411764706 0.008 0  0.9019607843137255 0.008 0  0.9215686274509803 0.008 0  0.9411764705882353 0.008 0  0.9607843137254902 0.008 0  0.9803921568627451 0.008 0  1 0.008 0  0 0.01 0  0.0196078431372549 0.01 0  0.0392156862745098 0.01 0  0.05882352941176471 0.01 0  0.07843137254901961 0.01 0  0.09803921568627451 0.01 0  0.1176470588235294 0.01 0  0.1372549019607843 0.01 0  0.1568627450980392 0.01 0  0.1764705882352941 0.01 0  0.196078431372549 0.01 0  0.2156862745098039 0.01 0  0.2352941176470588 0.01 0  0.2549019607843137 0.01 0  0.2745098039215687 0.01 0  0.2941176470588235 0.01 0  0.3137254901960784 0.01 0  0.3333333333333333 0.01 0  0.3529411764705883 0.01 0  0.3725490196078431 0.01 0  0.392156862745098 0.01 0  0.4117647058823529 0.01 0  0.4313725490196079 0.01 0  0.4509803921568628 0.01 0  0.4705882352941176 0.01 0  0.4901960784313725 0.01 0  0.5098039215686274 0.01 0  0.5294117647058824 0.01 0  0.5490196078431373 0.01 0  0.5686274509803921 0.01 0  0.5882352941176471 0.01 0  0.6078431372549019 0.01 0  0.6274509803921569 0.01 0  0.6470588235294118 0.01 0  0.6666666666666666 0.01 0  0.6862745098039216 0.01 0  0.7058823529411765 0.01 0  0.7254901960784313 0.01 0  0.7450980392156863 0.01 0  0.7647058823529411 0.01 0  0.7843137254901961 0.01 0  0.803921568627451 0.01 0  0.8235294117647058 0.01 0  0.8431372549019608 0.01 0  0.8627450980392157 0.01 0  0.8823529411764706 0.01 0  0.9019607843137255 0.01 0  0.9215686274509803 0.01 0  0.9411764705882353 0.01 0  0.9607843137254902 0.01 0  0.9803921568627451 0.01 0  1 0.01 0  0 0 0.006  0.0196078431372549 0 0.006  0.0392156862745098 0 0.006  0.05882352941176471 0 0.006  0.07843137254901961 0 0.006  0.09803921568627451 0 0.006  0.1176470588235294 0 0.006  0.1372549019607843 0 0.006  0.1568627450980392 0 0.006  0.1764705882352941 0 0.006  0.196078431372549 0 0.006  0.2156862745098039 0 0.006  0.2352941176470588 0 0.006  0.2549019607843137 0 0.006  0.2745098039215687 0 0.006  0.2941176470588235 0 0.006  0.3137254901960784 0 0.006  0.3333333333333333 0 0.006  0.3529411764705883 0 0.006  0.3725490196078431 0 0.006  0.392156862745098 0 0.006  0.4117647058823529 0 0.006  0.4313725490196079 0 0.006  0.4509803921568628 0 0.006  0.4705882352941176 0 0.006  0.4901960784313725 0 0.006  0.5098039215686274 0 0.006  0.5294117647058824 0 0.006  0.5490196078431373 0 0.006  0.5686274509803921 0 0.006  0.5882352941176471 0 0.006  0.6078431372549019 0 0.006  0.6274509803921569 0 0.006  0.6470588235294118 0 0.006  0.6666666666666666 0 0.006  0.6862745098039216 0 0.006  0.7058823529411765 0 0.006  0.7254901960784313 0 0.006  0.7450980392156863 0 0.006  0.7647058823529411 0 0.006  0.7843137254901961 0 0.006  0.803921568627451 0 0.006  0.8235294117647058 0 0.006  0.8431372549019608 0 0.006  0.8627450980392157 0 0.006  0.8823529411764706 0 0.006  0.9019607843137255 0 0.006  0.9215686274509803 0 0.006  0.9411764705882353 0 0.006  0.9607843137254902 0 0.006  0.9803921568627451 0 0.006  1 0 0.006  0 0.002 0.006  0.0196078431372549 0.002 0.006  0.0392156862745098 0.002 0.006  0.05882
[...]
<PointData  Vectors="Eigenvector"> 
<DataArray  type="Float64"  Name="Eigenvector"  NumberOfComponents="3" format="ascii">2.9517583419640208e-17 2.2974358068679724e-17 2.0591198315141811e-18  -1.1297755859834431e-04 -2.2305107729828568e-04 2.0064805832931763e-08  -2.1849862985767526e-04 -8.7610185091997056e-04 5.0587487902285973e-08  -3.1182485263339720e-04 -1.9205186462989575e-03 8.4045126378560084e-08  -3.8870657622513082e-04 -3.2999369769645299e-03 1.1722174667432401e-07  -4.4564277269667086e-04 -4.9427384527699018e-03 1.4851754068119131e-07  -4.8004064127938955e-04 -6.7653106991234953e-03 1.7650788592688705e-07  -4.9033374588056556e-04 -8.6758548187606341e-03 1.9992940310464327e-07  -4.7605335127313812e-04 -1.0578565786513257e-02 2.1772812017850453e-07  -4.3784976900431333e-04 -1.2377995289164875e-02 2.2910614659556529e-07  -3.7746274302383285e-04 -1.3983398322160136e-02 2.3355741826799412e-07  -2.9764222391728140e-04 -1.5312865603620343e-02 2.3089027142604868e-07  -2.0202313960657241e-04 -1.6297053620623909e-02 2.2123571019134044e-07  -9.4959865263314323e-05 -1.6882342446147280e-02 2.0504099440977148e-07  1.8672069510978394e-05 -1.7033277523471640e-02 1.8304883302620544e-07  1.3369800620238986e-04 -1.6734184222378153e-02 1.5626312704362647e-07  2.4487980489392049e-04 -1.5989881642210706e-02 1.2590285058720363e-07  3.4715438263034653e-04 -1.4825463156074402e-02 9.3346148274728441e-08  4.3586427987046079e-04 -1.3285153689953207e-02 6.0067196214337572e-08  5.0696975538136175e-04 -1.1430295774943994e-02 2.7568704399747288e-08  5.5723275104295770e-04 -9.3365560851148329e-03 -2.6868472507786661e-09  5.8436434898719871e-04 -7.0904796717417892e-03 -2.9344116518934112e-08  5.8712900606911801e-04 -4.7855488098611171e-03 -5.1216910843312427e-08  5.6540081897568585e-04 -2.5179259323583041e-03 -6.7342456330863571e-08  5.2016925772827439e-04 -3.8207451300322805e-04 -7.7025477651739112e-08  4.5349410648301688e-04 1.5335426820436556e-03 -7.9870062504118064e-08  3.6841166355687863e-04 3.1504920780158112e-03 -7.5797860647936500e-08  2.6879647222008125e-04 4.4039410584713725e-03 -6.5051792684766706e-08  1.5918487886957302e-04 5.2456103615961458e-03 -4.8185098711204725e-08  4.4568453505578466e-05 5.6459726574336084e-03 -2.6036216819262137e-08  -6.9833320101028970e-05 5.5955971855687148e-03 3.0935275405174780e-10  -1.7881073315052814e-04 5.1055792201550373e-03 2.9568471054505930e-08  -2.7740109541449345e-04 4.2070348049900938e-03 6.0318814320885858e-08  -3.6111472990919813e-04 2.9496837677858399e-03 9.1063701732999457e-08  -4.2613942715402089e-04 1.3995855413936826e-03 1.2030034178512810e-07  -4.6951404840765140e-04 -3.6386910019326054e-04 1.4658838825279721e-07  -4.8926337219966072e-04 -2.2515733984608821e-03 1.6861568479936251e-07  -4.8448804342264833e-04 -4.1687624207714432e-03 1.8525820178445568e-07  -4.5540552880119704e-04 -6.0193285369258935e-03 1.9563143876594382e-07  -4.0334021372154049e-04 -7.7101980404355253e-03 1.9913094264795150e-07  -3.3066309137345202e-04 -9.1555696088368617e-03 1.9546010782834922e-07  -2.4068379064555201e-04 -1.0280821588675021e-02 1.8464397643419977e-07  -1.3749985975363495e-04 -1.1025910172330322e-02 1.6702842020919749e-07  -2.5810168992705692e-05 -1.1348103717976695e-02 1.4326473579809064e-07  8.9299069986396100e-05 -1.1223928695074699e-02 1.1428034457923414e-07  2.0258592387601348e-04 -1.0650238639499349e-02 8.1236902375342007e-08  3.0889144892178310e-04 -9.6443574391516865e-03 4.5477477857661775e-08  4.0337462332226313e-04 -8.2432904235291062e-03 8.4637073299766977e-09  4.8173278925930148e-04 -6.5020391661993211e-03 -2.8290653766642963e-08  5.4039769795073613e-04 -4.4910968925503895e-03 -6.3788588250510025e-08  5.7669508935379466e-04 -2.2932558426896738e-03 -9.0757960191634704e-08  5.8857894797244281e-04 3.1332191333709299e-17 8.6889845931303327e-18  3.4592088223548515e-17 2.9187014729098029e-17 3.9577936180737183e-17  -6.7672164998676084e-05 -2.2305154360750459e-04 1.2034970727501223e-08  -1.3091650769578533e-04 -8.7610312567354626e-04 3.3023067810749678e-08  -1.8685160995041315e-04 -1.9205207937230506e-03 5.7506068886851047e-08  -2.3293110948373544e-04 -3.2999398987860326e-03 8.3294794020011722e-08  -2.6705663153419852e-04 -4.9427420157825081e-03 1.0915919764709791e-07  -2.8767414274661165e-04 -6.7653147410665013e-03 1.3391753669419687e-07  -2.9384474710250554e-04 -8.6758591555708368e-03 1.5644530911034132e-07  -2.8528744287864029e-04 -1.0578570220701093e-02 1.7572052534827106e-07  -2.6239191925349337e-04 -1.2377999618806312e-02 1.9086928328811752e-07  -2.2620081034158487e-04 -1.3983402350092078e-02 2.0120502420879607e-07  -1.7836221493536112e-04 -1.5312869146419392e-02 2.0625933140499862e-07  -1.2105464415156864e-04 -1.6297056516958820e-02 2.0580280191508146e-07  -5.6887814747679519e-05 -1.6882344564125684e-02 1.9985504641619771e-07  1.1216194129780308e-05 -1.7033278766646981e-02 1.8868335774143766e-07  8.0156008778415152e-05 -1.6734184534141334e-02 1.7279010730479244e-07  1.4679219364381070e-04 -1.5989881008367950e-02 1.5288945977513063e-07  2.0809021730690348e-04 -1.4825461605493195e-02 1.2987445955809345e-07  2.6125864124806425e-04 -1.3285151293248580e-02 1.0477598236888939e-07  3.0387623848039349e-04 -1.1430292641262321e-02 7.8715427905471935e-08  3.3400225322908887e-04 -9.3365523571635606e-03 5.2853319882787501e-08  3.5026478054363979e-04 -7.0904755192903943e-03 2.8336146921484321e-08  3.5192324114975573e-04 -4.7855444220105221e-03 6.2438648500130697e-09  3.3890210652340476e-04 -2.5179215089291603e-03 -1.2459538805246316e-08  3.1179433838752037e-04 -3.8207025543633439e-04 -2.6970177297646977e-08  2.7183438600279661e-04 1.5335465798606129e-03 -3.6681075354447822e-08  2.2084197091360710e-04 3.1504954385777320e-03 -4.1209980332996805e-08  1.6113921912697181e-04 4.4039437287390782e-03 -4.0416910376192850e-08  9.5444914424725667e-05 5.2456122199655859e-03 -3.4410638690224702e-08  2.6750688371795038e-05 5.6459736192735139e-03 -2.3543814467786054e-08  -4.1815214820695648e-05 5.5955972070747756e-03 -8.3969477520139711e-09  -1.0713039460152786e-04 5.1055783003443609e-03 1.0248016672476485e-08  -1.6622048427103231e-04 4.2070329857464804e-03 3.1443329449451585e-08  -2.1639459989134142e-04 2.9496811319520005e-03 5.4118653512514710e-08  -2.5536787975570936e-04 1.3995822089986590e-03 7.7129894807706176e-08  -2.8136553411340438e-04 -3.6387297739970880e-04 9.9311423271145498e-08  -2.9320366685224521e-04 -2.2515776439189770e-03 1.1952930766049743e-07  -2.9034318862298516e-04 -4.1687668411518365e-03 1.3673313645980969e-07  -2.7291436626346370e-04 -6.0193329309331123e-03 1.5000406639942376e-07  -2.4171089059558406e-04 -7.7102022079755198e-03 1.5859690708298780e-07  -1.9815373272697093e-04 -9.1555733601285574e-03 1.6197432774698156e-07  -1.4422643477304283e-04 -1.0280824752892499e-02 1.5983162119981552e-07  -8.2384781814838850e-05 -1.1025912605382424e-02 1.5211090220876265e-07  -1.5444968494758444e-05 -1.1348105309068783e-02 1.3900408813606647e-07  5.3544646996649325e-05 -1.1223929371753842e-02 1.2094452129326484e-07  1.2144236133431096e-04 -1.0650238370954085e-02 9.8587590923123959e-08  1.8515619533436648e-04 -9.6443562376282120e-03 7.2781105478526690e-08  2.4178469890448798e-04 -8.2432883434713031e-03 4.4525710850071259e-08  2.8874907248635994e-04 -6.5020363071695451e-03 1.4925066921247470e-08  3.2391052355145578e-04 -4.4910933619168288e-03 -1.4936829772357528e-08  3.4566683398098297e-04 -2.2932502174933035e-03 -4.1058351607279787e-08  3.5281932069221913e-04 1.3885635854978610e-17 3.7988517410087555e-17  5.1854216300085409e-18 2.2101404710495922e-17 1.8930286513413559e-17  -2.2543018402180493e-05 -2.2305583870333372e-04 5.2718295710873992e-09  -4.3616680291518062e-05 -8.7611088531679973e-04 1.7092440106118961e-08  -6.2254740946435098e-05 -1.9205313630510481e-03 3.2878206186358013e-08  -7.7608934112284803e-05 -3.2999528058587006e-03 5.1465645583920713e-08  -8.8980057441083633e-05 -4.9427566724447921e-03 7.1989735181529937e-08  -9.5850283265310160e-05 -6.7653304798649299e-03 9.3507458912311499e-08  -9.7906749723166843e-05 -8.6758752597808492e-03 1.1503359018285126e-07  -9.5055807801698082e-05 -1.0578585956960092e-02 1.3558303464705122e-07  -8.7427286089544905e-05 -1.2378014270507453e-02 1.5421508998268648e-07  -7.5368578538507276e-05 -1.3983415250018196e-02 1.7007579232346625e-07  -5.9428824573451946e-05 -1.5312879707126692e-02 1.8243634328807562e-07  -4.0333901968336617e-05 -1.6297064257529192e-02 1.9072584137846074e-07  -1.8953371271286985e-05 -1.6882349132065620e-02 1.9455683151920905e-07  3.7391229051098186e-06 -1.7033279953941185e-02 1.9374251257435474e-07  2.6710190449603089e-05 -1.6734182286724811e-02 1.8830481514695850e-07  4.8913755061668989e-05 -1.5989875428588055e-02 1.7847299067312097e-07  6.9338691272921560e-05 -1.4825452947449202e-02 1.6467278035989692e-07  8.7054869845026666e-05 -1.3285139951219532e-02 1.4750664625781283e-07  1.0125551470822915e-04 -1.1430279131753021e-02 1.2772597774145062e-07  1.1129394255592991e-04 -9.3365372953835048e-03 1.0619653939643326e-07  1.1671301201374789e-04 -7.0904595911363364e-03 8.3858734498878475e-08  1.1726594130443263e-04 -4.7855283528339589e-03 6.1684493048305230e-08  1.1292754640235205e-04 -2.5179060305029425e-03 4.0632753673481615e-08  1.0389538790381667e-04 -3.8205607263163636e-04 2.1605562300950463e-08  9.0580774389219961e-05 1.5335588211737566e-03 5.4067916951008192e-09  7.3590031967126190e-05 3.1505051809424135e-03 -7.2946367861559679e-09  5.3696892965134022e-05 4.4039505284972713e-03 -1.5995355921194992e-08  3.1807261152563451e-05 5.2456157674619919e-03 -2.0380584001767909e-08  8.9179580398909371e-06 5.6459737529566826e-03 -2.0338535288885465e-08  -1.3928671102338112e-05 5.5955939208541822e-03 -1.5965553704139219e-08  -3.5692224318543866e-05 5.1055717438673529e-03 -7.5617358137865981e-09  -5.5381621547111872e-05 4.2070234575841952e-03 4.3827575152171867e-09  -7.2100237140223559e-05 2.9496690660020019e-03 1.9210079492439985e-08  -8.5086731051398458e-05 1.3995681547264781e-03 3.6124743724805367e-08  -9.3749719286316421e-05 -3.6388837998293372e-04 5.4229970118843249e-08  -9.7694704766668436e-05 -2.2515936934017020e-03 7.2568676484918285e-08  -9.6742042209930785e-05 -4.1687828066639433e-03 9.0167246216796357e-08  -9.0935118926064332e-05 -6.0193480854273031e-03 1.0608007918395043e-07  -8.0538378994398954e-05 -7.7102158613382788e-03 1.1943289558612943e-07  -6.6025280793379398e-05 -9.1555848906055386e-03 1.2946282043442486e-07  -4.8056736275106627e-05 -1.0280833635403115e-02 1.3555341942135549e-07  -2.7451013844321389e-05 -1.1025918435431209e-02 1.3726309265855813e-07  -5.1464754196434990e-06 -1.1348107821165267e-02 1.3434552862687570e-07  1.7841155415117903e-05 -1.1223928451503211e-02 1.2676128581080461e-07  4.0465048200800108e-05 -1.0650234060265669e-02 1.1467996267980809e-07  6.1694936968013182e-05 -9.6443487328203657e-03 9.8472822879864196e-08  8.0564037189954116e-05 -8.2432779860084106e-03 7.8695904279448744e-08  9.6213070492001812e-05 -6.5020235718520007e-03 5.6059037368203622e-08  1.0792930367464405e-04 -4.4910788640206666e-03 3.1471235482935276e-08  1.1517950452257104e-04 -2.2932325842643427e-03 7.0897267788184943e-09  1.1757849865871505e-04 2.3513375415911858e-17 4.0603813873290689e-17  2.8871412994550195e-17 2.9830198349931926e-17 3.1393686029683407e-18  2.2531250519527423e-05 -2.2306528984526996e-04 -6.2387387329757186e-10  4.3595996841570015e-05 -8.7612616085642656e-04 2.1491387713238132e-09  6.2226022404952402e-05 -1.9205516467098124e-03 9.3640080313116362e-09  7.7573477525472558e-05 -3.2999771850459724e-03 2.0826485379746056e-08  8.8939459256200001e-05 -4.9427840365962863e-03 3.6032307414383860e-08  9.5806376979336836e-05 -6.7653595828484191e-03 5.4276271494255675e-08  9.7861520224119483e-05 -8.6759047762838132e-03 7.4713931990551051e-08  9.5011300420249240e-05 -1.0578614542839961e-02 9.6401043059318407e-08  8.7385512740534050e-05 -1.2378040624001265e-02 1.1833632112086482e-07  7.5331425394252444e-05 -1.3983438171022995e-02 1.3950659754396199e-07  5.9397965470420680e-05 -1.5312898151850309e-02 1.5893250081737321e-07  4.0310721491089839e-05 -1.6297077386024744e-02 1.7571260061778497e-07  1.8938901023676846e-05 -1.6882356346479568e-02 1.8906400805569721e-07  -3.7442519389248819e-06 -1.7033280925739913e-02 1.9835759215031297e-07  -2.6705777280708868e-05 -1.6734176971656661e-02 2.0314620239054643e-07  -4.8900038466569275e-05 -1.5989864068696152e-02 2.0318461753580264e-07  -6.9316339509852996e-05 -1.4825436060051591e-02 1.9844031788545331e-07  -8.7024950785864549e-05 -1.3285118305348731e-02 1.8909458753770726e-07  -1.0121944773738994e-04 -1.1430253713137190e-02 1.7553390304658745e-07  -1.1125343442799197e-04 -9.3365092615571819e-03 1.5833199752130593e-07  -1.1666997958642866e-04 -7.0904302187264788e-03 1.3822342310907567e-07  -1.1722242466428365e-04 -4.7854989794257879e-03 1.1606981316931012e-07  -1.1288561633606422e-04 -2.5178779937267163e-03 9.2820385608602173e-08  -1.0385705192952620e-04 -3.8203064924935935e-04 6.9468485105340838e-08  -9.0547885621262807e-05 1.5335804734110297e-03 4.7006145706928246e-08  -7.3564204966543171e-05 3.1505220760166775e-03 2.6378742989950399e-08  -5.3679430404949073e-05 4.4039618970257953e-03 8.4418019227412549e-09  -3.1799094636733588e-05 5.2456210917341158e-03 -6.0780701607470133e-09  -8.9196057695741276e-06 5.6459727905096230e-03 -1.6616349370909623e-08  1.3917127885422483e-05 5.5955867155143358e-03 -2.2796345426437267e-08  3.5671145041687825e-05 5.1055586237547818e-03 -2.4446366682994314e-08  5.5351789999081715e-05 4.2070050201703669e-03 -2.1607514869741124e-08  7.2062825889826108e-05 2.9496461509015059e-03 -1.4531758020415380e-08  8.5043248210488301e-05 1.3995418054621612e-03 -3.6703664322285185e-09  9.3701940041185006e-05 -3.6391696350057375e-04 1.0346757739037774e-08  9.7644590795201676e-05 -2.2516232095170096e-03 2.6739918719987928e-08  9.6691652653463838e-05 -4.1688119112522279e-03 4.4615317097585069e-08  9.0886516966585747e-05 -6.0193754531041189e-03 6.3005965655958706e-08  8.0493538292062430e-05 -7.7102402458158730e-03 8.0915967239289065e-08  6.5985996041742140e-05 -9.1556051814473960e-03 9.7366137578676836e-08  4.8024541944858916e-05 -1.0280848908591874e-02 1.1143889199678846e-07  2.7427114814460233e-05 -1.1025927995447014e-02 1.2232035314032849e-07  5.1316926512628911e-06 -1.1348111232659127e-02 1.2933775695155618e-07  -1.7846421690420523e-05 -1.1223925559122105e-02 1.3199045781729947e-07  -4.0460836102195530e-05 -1.0650224995726458e-02 1.2997312027755828e-07  -6.1681720594517603e-05 -9.6443339089197881e-03 1.2319009833625997e-07  -8.0542704560112633e-05 -8.2432580776005751e-03 1.1176075866156581e-07  -9.6184881897814879e-05 -6.5019994861765084e-03 9.6010426829156457e-08  -1.0789593552326105e-04 -4.4910517512880138e-03 7.6558358305900818e-08  -1.1514123479165954e-04 -2.2932013754266957e-03 5.4124787181556150e-08  -1.1751250473574251e-04 8.3549768403164686e-18 3.8725686879030459e-17  1.8235387363890818e-17 2.3632636284174201e-17 8.7564065311826884e-18  6.7661884024298129e-05 -2.2307748178379211e-04 -4.8341289194140863e-09  1.3090048162836375e-04 -8.7614490366217203e-04 -1.0597110971667550e-08  1.8683012107576034e-04 -1.9205763497517547e-03 -1.1482654798032594e-08  2.3290513081864882e-04 -3.3000067278628415e-03 -6.7969731526689422e-09  2.6702732798793534e-04 -4.9428170735707471e-03 3.3013757046721431e-09  2.8764283346990763e-04 -6.7653946095191826e-03 1.8335442661126884e-08  2.9381284335581131e-04 -8.6759401975815623e-03 3.7598654187374832e-08  2.8525638317969751e-04 -1.0578648745724516e-02 6.0191528417743397e-08  2.6236310315177894e-04 -1.2378072050917543e-02 8.5062760911456978e-08  2.2617553397792018e-04 -1.3983465390829983e-02 1.1105670342949640e-07  1.7834161131782556e-04 -1.5312919924992738e-02 1.3696553919699118e-07  1.2103963086812042e-04 -1.6297092720984119e-02 1.6158383091121292e-07  5.6879051503655923e-05 -1.6882364544921428e-02 1.8376296651707228e-07  -1.1218336214658301e-05 -1.7033281614318843e-02 2.0246302929744393e-07  -8.0151464711838467e-05 -1.6734170119017643e-02 2.1679972937124674e-07  -1.4678120813784194e-04 -1.5989849986900902e-02 2.2608425836272797e-07  -2.0807333422400112e-04 -1.4825415390369093e-02 2.2985425712049361e-07  -2.6123667939802170e-04 -1.3285091989051730e-02 2.2789449653481373e-07  -3.0385025486090401e-04 -1.1430222948638408e-02 2.2024632376996659e-07  -3.3397349538617983e-04 -9.3364754498355008e-03 2.0720544222622693e-07  -3.5023463021630703e-04 -7.0903948995263231e-03 1.8930813575768919e-07  -3.5189315176447863e-04 -4.7854637611410115e-03 1.6730655893712490e-07  -3.3887353738129073e-04 -2.5178444801555178e-03 1.4213422513609452e-07  -3.1176868854155458e-04 -3.8200036655934577e-04 1.1486326448762783e-07  -2.7181293083137250e-04 1.5336061461825217e-03 8.6655399663362663e-08  -2.2082580428088133e-04 3.1505419697623578e-03 5.8708869348512223e-08  -1.6112920375952220e-04 4.4039751058078062e-03 3.2203721272245834e-08  -9.5441642765255663e-05 5.2456270140395387e-03 8.2479677950980037e-09  -2.6754455690589878e-05 5.6459711566424989e-03 -1.2172949920428510e-08  4.1804423830766837e-05 5.5955775998775279e-03 -2.8241079028688222e-08  1.0711290513754882e-04 5.1055424414614588e-03 -3.9343216011113840e-08  1.6619691667157268e-04 4.2069825081405736e-03 -4.5098805289274556e-08  2.1636584149823187e-04 2.9496183343033725e-03 -4.5377215547073867e-08  2.5533504466577708e-04 1.3995099510272762e-03 -4.0303597902727152e-08  2.8132991265304263e-04 -3.6395140516253454e-04 -3.0253067091346493e-08  2.9316666707429986e-04 -2.2516586699772643e-03 -1.5833465781185522e-08  2.9030627249020992e-04 -4.1688467756872127e-03 2.1424995103199709e-09  2.7287898342027365e-04 -6.0194081338327213e-03 2.2694481117416682e-08  2.4167841274546151e-04 -7.7102692545999163e-03 4.4719376877960488e-08  1.9812539160003420e-04 -9.1556291972646510e-03 6.7041834599644447e-08  1.4420326650625524e-04 -1.0280866837793544e-02 8.8468072606847469e-08  8.2367580276936114e-05 -1.1025939021561373e-02 1.0784056479068049e-07  1.5434249676788411e-05 -1.1348114853571702e-02 1.2409109552656991e-07  -5.3548667904898214e-05 -1.1223921609942785e-02 1.3628977599822244e-07  -1.2143977913959274e-04 -1.0650213656297201e-02 1.4368780127098408e-07  -1.8514740987992534e-04 -9.6443156956276064e-03 1.4575214878715373e-07  -2.4177039630557997e-04 -8.2432338197683842e-03 1.4219164635768830e-07  -2.8873019724496522e-04 -6.5019702877336209e-03 1.3297279250584662e-07  -3.2388820175085413e-04 -4.4910189707131985e-03 1.1836484011889268e-07  -3.4564190841734422e-04 -2.2931644876253089e-03 9.8303765549049972e-08  -3.5279030298500727e-04 1.2529711226970693e-17 3.7494860696519301e-17  3.7379093606365969e-18 2.3847941328655200e-17 1.5083844378921906e-17  1.1297535760152268e-04 -2.2308356984151296e-04 -9.0992365922781468e-09  2.1849941681409508e-04 -8.7615437496759633e-04 -2.3229978356915328e-08  3.1182778479815515e-04 -1.9205891872180691e-03 -3.1911115360562987e-08  3.8871152803698336e-04 -3.3000223478572822e-03 -3.3721858487762563e-08  4.4564950078804591e-04 -4.9428347645091714e-03 -2.8482082649846727e-08  4.8004882397843194e-04 -6.7654135657766006e-03 -1.6452152321102897e-08  4.9034299607529869e-04 -8.6759595559130504e-03 1.7898482029773419e-09  4.7606323342457577e-04 -1.0578667624575367e-02 2.5382221678226100e-08  4.3785981826355774e-04 -1.2378089590568048e-02 5.3219373642294746e-08  3.7747248569426769e-04 -1.3983480792545848e-02 8.4001811949823164e-08  2.9765119832631979e-04 -1.5312932487398363e-02 1.1629487620441545e-07  2.0203091643839359e-04 -1.6297101872003419e-02 1.4859361638913956e-07  9.4966066432274651e-05 -1.6882369867827547e-02 1.7939088139659055e-07  -1.8667754303472374e-05 -1.7033282866712868e-02 2.0724551332127368e-07  -1.3369580597854893e-04 -1.6734167243866716e-02 2.3084755453803027e-07  -2.4487985758771540e-04 -1.5989843115135349e-02 2.4907748590383893e-07  -3.4715672939591188e-04 -1.4825404834919917e-02 2.6105680234282788e-07  -4.3586886377