<?xml version="1.0"?>
<VTKFile type="UnstructuredGrid"  version="0.1"  >
<UnstructuredGrid>
<Piece  NumberOfPoints="1872" NumberOfCells="7650">
<Points>
<DataArray  type="Float64"  NumberOfComponents="3"  format="ascii">0 0 0  0.0196078431372549 0 0  0.0392156862745098 0 0  0.05882352941176471 0 0  0.07843137254901961 0 0  0.09803921568627451 0 0  0.1176470588235294 0 0  0.1372549019607843 0 0  0.1568627450980392 0 0  0.1764705882352941 0 0  0.196078431372549 0 0  0.2156862745098039 0 0  0.2352941176470588 0 0  0.2549019607843137 0 0  0.2745098039215687 0 0  0.2941176470588235 0 0  0.3137254901960784 0 0  0.3333333333333333 0 0  0.3529411764705883 0 0  0.3725490196078431 0 0  0.392156862745098 0 0  0.4117647058823529 0 0  0.4313725490196079 0 0  0.4509803921568628 0 0  0.4705882352941176 0 0  0.4901960784313725 0 0  0.5098039215686274 0 0  0.5294117647058824 0 0  0.5490196078431373 0 0  0.5686274509803921 0 0  0.5882352941176471 0 0  0.6078431372549019 0 0  0.6274509803921569 0 0  0.6470588235294118 0 0  0.6666666666666666 0 0  0.6862745098039216 0 0  0.7058823529411765 0 0  0.7254901960784313 0 0  0.7450980392156863 0 0  0.7647058823529411 0 0  0.7843137254901961 0 0  0.803921568627451 0 0  0.8235294117647058 0 0  0.8431372549019608 0 0  0.8627450980392157 0 0  0.8823529411764706 0 0  0.9019607843137255 0 0  0.9215686274509803 0 0  0.9411764705882353 0 0  0.9607843137254902 0 0  0.9803921568627451 0 0  1 0 0  0 0.002 0  0.0196078431372549 0.002 0  0.0392156862745098 0.002 0  0.05882352941176471 0.002 0  0.07843137254901961 0.002 0  0.09803921568627451 0.002 0  0.1176470588235294 0.002 0  0.1372549019607843 0.002 0  0.1568627450980392 0.002 0  0.1764705882352941 0.002 0  0.196078431372549 0.002 0  0.2156862745098039 0.002 0  0.2352941176470588 0.002 0  0.2549019607843137 0.002 0  0.2745098039215687 0.002 0  0.2941176470588235 0.002 0  0.3137254901960784 0.002 0  0.3333333333333333 0.002 0  0.3529411764705883 0.002 0  0.3725490196078431 0.002 0  0.392156862745098 0.002 0  0.4117647058823529 0.002 0  0.4313725490196079 0.002 0  0.4509803921568628 0.002 0  0.4705882352941176 0.002 0  0.4901960784313725 0.002 0  0.5098039215686274 0.002 0  0.5294117647058824 0.002 0  0.5490196078431373 0.002 0  0.5686274509803921 0.002 0  0.5882352941176471 0.002 0  0.6078431372549019 0.002 0  0.6274509803921569 0.002 0  0.6470588235294118 0.002 0  0.6666666666666666 0.002 0  0.6862745098039216 0.002 0  0.7058823529411765 0.002 0  0.7254901960784313 0.002 0  0.7450980392156863 0.002 0  0.7647058823529411 0.002 0  0.7843137254901961 0.002 0  0.803921568627451 0.002 0  0.8235294117647058 0.002 0  0.8431372549019608 0.002 0  0.8627450980392157 0.002 0  0.8823529411764706 0.002 0  0.9019607843137255 0.002 0  0.9215686274509803 0.002 0  0.9411764705882353 0.002 0  0.9607843137254902 0.002 0  0.9803921568627451 0.002 0  1 0.002 0  0 0.004 0  0.0196078431372549 0.004 0  0.0392156862745098 0.004 0  0.05882352941176471 0.004 0  0.07843137254901961 0.004 0  0.09803921568627451 0.004 0  0.1176470588235294 0.004 0  0.1372549019607843 0.004 0  0.1568627450980392 0.004 0  0.1764705882352941 0.004 0  0.196078431372549 0.004 0  0.2156862745098039 0.004 0  0.2352941176470588 0.004 0  0.2549019607843137 0.004 0  0.2745098039215687 0.004 0  0.2941176470588235 0.004 0  0.3137254901960784 0.004 0  0.3333333333333333 0.004 0  0.3529411764705883 0.004 0  0.3725490196078431 0.004 0  0.392156862745098 0.004 0  0.4117647058823529 0.004 0  0.4313725490196079 0.004 0  0.4509803921568628 0.004 0  0.4705882352941176 0.004 0  0.4901960784313725 0.004 0  0.5098039215686274 0.004 0  0.5294117647058824 0.004 0  0.5490196078431373 0.004 0  0.5686274509803921 0.004 0  0.5882352941176471 0.004 0  0.6078431372549019 0.004 0  0.6274509803921569 0.004 0  0.6470588235294118 0.004 0  0.6666666666666666 0.004 0  0.6862745098039216 0.004 0  0.7058823529411765 0.004 0  0.7254901960784313 0.004 0  0.7450980392156863 0.004 0  0.7647058823529411 0.004 0  0.7843137254901961 0.004 0  0.803921568627451 0.004 0  0.8235294117647058 0.004 0  0.8431372549019608 0.004 0  0.8627450980392157 0.004 0  0.8823529411764706 0.004 0  0.9019607843137255 0.004 0  0.9215686274509803 0.004 0  0.9411764705882353 0.004 0  0.9607843137254902 0.004 0  0.9803921568627451 0.004 0  1 0.004 0  0 0.006 0  0.0196078431372549 0.006 0  0.0392156862745098 0.006 0  0.05882352941176471 0.006 0  0.07843137254901961 0.006 0  0.09803921568627451 0.006 0  0.1176470588235294 0.006 0  0.1372549019607843 0.006 0  0.1568627450980392 0.006 0  0.1764705882352941 0.006 0  0.196078431372549 0.006 0  0.2156862745098039 0.006 0  0.2352941176470588 0.006 0  0.2549019607843137 0.006 0  0.2745098039215687 0.006 0  0.2941176470588235 0.006 0  0.3137254901960784 0.006 0  0.3333333333333333 0.006 0  0.3529411764705883 0.006 0  0.3725490196078431 0.006 0  0.392156862745098 0.006 0  0.4117647058823529 0.006 0  0.4313725490196079 0.006 0  0.4509803921568628 0.006 0  0.4705882352941176 0.006 0  0.4901960784313725 0.006 0  0.5098039215686274 0.006 0  0.5294117647058824 0.006 0  0.5490196078431373 0.006 0  0.5686274509803921 0.006 0  0.5882352941176471 0.006 0  0.6078431372549019 0.006 0  0.6274509803921569 0.006 0  0.6470588235294118 0.006 0  0.6666666666666666 0.006 0  0.6862745098039216 0.006 0  0.7058823529411765 0.006 0  0.7254901960784313 0.006 0  0.7450980392156863 0.006 0  0.7647058823529411 0.006 0  0.7843137254901961 0.006 0  0.803921568627451 0.006 0  0.8235294117647058 0.006 0  0.8431372549019608 0.006 0  0.8627450980392157 0.006 0  0.8823529411764706 0.006 0  0.9019607843137255 0.006 0  0.9215686274509803 0.006 0  0.9411764705882353 0.006 0  0.9607843137254902 0.006 0  0.9803921568627451 0.006 0  1 0.006 0  0 0.008 0  0.0196078431372549 0.008 0  0.0392156862745098 0.008 0  0.05882352941176471 0.008 0  0.07843137254901961 0.008 0  0.09803921568627451 0.008 0  0.1176470588235294 0.008 0  0.1372549019607843 0.008 0  0.1568627450980392 0.008 0  0.1764705882352941 0.008 0  0.196078431372549 0.008 0  0.2156862745098039 0.008 0  0.2352941176470588 0.008 0  0.2549019607843137 0.008 0  0.2745098039215687 0.008 0  0.2941176470588235 0.008 0  0.3137254901960784 0.008 0  0.3333333333333333 0.008 0  0.3529411764705883 0.008 0  0.3725490196078431 0.008 0  0.392156862745098 0.008 0  0.4117647058823529 0.008 0  0.4313725490196079 0.008 0  0.4509803921568628 0.008 0  0.4705882352941176 0.008 0  0.4901960784313725 0.008 0  0.5098039215686274 0.008 0  0.5294117647058824 0.008 0  0.5490196078431373 0.008 0  0.5686274509803921 0.008 0  0.5882352941176471 0.008 0  0.6078431372549019 0.008 0  0.6274509803921569 0.008 0  0.6470588235294118 0.008 0  0.6666666666666666 0.008 0  0.6862745098039216 0.008 0  0.7058823529411765 0.008 0  0.7254901960784313 0.008 0  0.7450980392156863 0.008 0  0.7647058823529411 0.008 0  0.7843137254901961 0.008 0  0.803921568627451 0.008 0  0.8235294117647058 0.008 0  0.8431372549019608 0.008 0  0.8627450980392157 0.008 0  0.8823529411764706 0.008 0  0.9019607843137255 0.008 0  0.9215686274509803 0.008 0  0.9411764705882353 0.008 0  0.9607843137254902 0.008 0  0.9803921568627451 0.008 0  1 0.008 0  0 0.01 0  0.0196078431372549 0.01 0  0.0392156862745098 0.01 0  0.05882352941176471 0.01 0  0.07843137254901961 0.01 0  0.09803921568627451 0.01 0  0.1176470588235294 0.01 0  0.1372549019607843 0.01 0  0.1568627450980392 0.01 0  0.1764705882352941 0.01 0  0.196078431372549 0.01 0  0.2156862745098039 0.01 0  0.2352941176470588 0.01 0  0.2549019607843137 0.01 0  0.2745098039215687 0.01 0  0.2941176470588235 0.01 0  0.3137254901960784 0.01 0  0.3333333333333333 0.01 0  0.3529411764705883 0.01 0  0.3725490196078431 0.01 0  0.392156862745098 0.01 0  0.4117647058823529 0.01 0  0.4313725490196079 0.01 0  0.4509803921568628 0.01 0  0.4705882352941176 0.01 0  0.4901960784313725 0.01 0  0.5098039215686274 0.01 0  0.5294117647058824 0.01 0  0.5490196078431373 0.01 0  0.5686274509803921 0.01 0  0.5882352941176471 0.01 0  0.6078431372549019 0.01 0  0.6274509803921569 0.01 0  0.6470588235294118 0.01 0  0.6666666666666666 0.01 0  0.6862745098039216 0.01 0  0.7058823529411765 0.01 0  0.7254901960784313 0.01 0  0.7450980392156863 0.01 0  0.7647058823529411 0.01 0  0.7843137254901961 0.01 0  0.803921568627451 0.01 0  0.8235294117647058 0.01 0  0.8431372549019608 0.01 0  0.8627450980392157 0.01 0  0.8823529411764706 0.01 0  0.9019607843137255 0.01 0  0.9215686274509803 0.01 0  0.9411764705882353 0.01 0  0.9607843137254902 0.01 0  0.9803921568627451 0.01 0  1 0.01 0  0 0 0.006  0.0196078431372549 0 0.006  0.0392156862745098 0 0.006  0.05882352941176471 0 0.006  0.07843137254901961 0 0.006  0.09803921568627451 0 0.006  0.1176470588235294 0 0.006  0.1372549019607843 0 0.006  0.1568627450980392 0 0.006  0.1764705882352941 0 0.006  0.196078431372549 0 0.006  0.2156862745098039 0 0.006  0.2352941176470588 0 0.006  0.2549019607843137 0 0.006  0.2745098039215687 0 0.006  0.2941176470588235 0 0.006  0.3137254901960784 0 0.006  0.3333333333333333 0 0.006  0.3529411764705883 0 0.006  0.3725490196078431 0 0.006  0.392156862745098 0 0.006  0.4117647058823529 0 0.006  0.4313725490196079 0 0.006  0.4509803921568628 0 0.006  0.4705882352941176 0 0.006  0.4901960784313725 0 0.006  0.5098039215686274 0 0.006  0.5294117647058824 0 0.006  0.5490196078431373 0 0.006  0.5686274509803921 0 0.006  0.5882352941176471 0 0.006  0.6078431372549019 0 0.006  0.6274509803921569 0 0.006  0.6470588235294118 0 0.006  0.6666666666666666 0 0.006  0.6862745098039216 0 0.006  0.7058823529411765 0 0.006  0.7254901960784313 0 0.006  0.7450980392156863 0 0.006  0.7647058823529411 0 0.006  0.7843137254901961 0 0.006  0.803921568627451 0 0.006  0.8235294117647058 0 0.006  0.8431372549019608 0 0.006  0.8627450980392157 0 0.006  0.8823529411764706 0 0.006  0.9019607843137255 0 0.006  0.9215686274509803 0 0.006  0.9411764705882353 0 0.006  0.9607843137254902 0 0.006  0.9803921568627451 0 0.006  1 0 0.006  0 0.002 0.006  0.0196078431372549 0.002 0.006  0.0392156862745098 0.002 0.006  0.05882
[...]
<PointData  Vectors="Eigenvector"> 
<DataArray  type="Float64"  Name="Eigenvector"  NumberOfComponents="3" format="ascii">2.3217557786403042e-18 1.5851292109075586e-18 1.4329234931095027e-19  -5.6924802978039731e-05 -1.1218619686483178e-04 5.5548875839815991e-09  -1.1139094882568447e-04 -4.4318355846619727e-04 1.3738166872949181e-08  -1.6217722840146097e-04 -9.8094711020222172e-04 2.3071467290502448e-08  -2.0812066389675968e-04 -1.7087343659396813e-03 3.2799033698404224e-08  -2.4816914277469459e-04 -2.6054515678411907e-03 4.2663233501131679e-08  -2.8140552675955208e-04 -3.6461363924829549e-03 5.2431946209548300e-08  -3.0706867860011091e-04 -4.8025295558682315e-03 6.1878212138032563e-08  -3.2457089358126307e-04 -6.0437219676656908e-03 7.0782139547763865e-08  -3.3351135849967541e-04 -7.3368625718583805e-03 7.8935638202953247e-08  -3.3368533057820914e-04 -8.6479106601919514e-03 8.6147116218396653e-08  -3.2508882622526959e-04 -9.9424154295643160e-03 9.2245842752874502e-08  -3.0791871227106615e-04 -1.1186304930903975e-02 9.7085834967989232e-08  -2.8256819756557764e-04 -1.2346666342052622e-02 1.0054918363126568e-07  -2.4961782819711510e-04 -1.3392499695726623e-02 1.0254873650166259e-07  -2.0982219256599995e-04 -1.4295427801711884e-02 1.0303007188105292e-07  -1.6409264073761245e-04 -1.5030346105519307e-02 1.0197273976086423e-07  -1.1347641384014906e-04 -1.5575997601226155e-02 9.9390723079474356e-08  -5.9132661493689024e-05 -1.5915459632603844e-02 9.5332106218969065e-08  -2.3058964339244317e-06 -1.6036531434540927e-02 8.9877959473380260e-08  5.5702505776490218e-05 -1.5932013539628906e-02 8.3140479956552698e-08  1.1356410921342734e-04 -1.5599872651268137e-02 7.5260423326838700e-08  1.6995383975211830e-04 -1.5043288207647571e-02 6.6403872516536443e-08  2.2358033023481640e-04 -1.4270579570305406e-02 5.6758448038667254e-08  2.7321549373201517e-04 -1.3295015504642248e-02 4.6529006732920815e-08  3.1772264766008294e-04 -1.2134510315425402e-02 3.5932957308440706e-08  3.5608254468375201e-04 -1.0811213595889786e-02 2.5195285102616529e-08  3.8741671421960562e-04 -9.3510029855683810e-03 1.4543413554359788e-08  4.1100758003112189e-04 -7.7828915532333065e-03 4.2020111559050641e-09  4.2631489327757795e-04 -6.1383633761958201e-03 -5.6121468459245710e-09  4.3298810461387489e-04 -4.4506525316375840e-03 -1.4695121712928624e-08  4.3087439203166032e-04 -2.7539820116488497e-03 -2.2860468375694292e-08  4.2002216059783189e-04 -1.0827799913891573e-03 -2.9943482372827753e-08  4.0067993393833685e-04 5.2910860158921977e-04 -3.5804951230457617e-08  3.7329066286986932e-04 2.0491971612119683e-03 -4.0334320751612864e-08  3.3848158149982801e-04 3.4471013702021876e-03 -4.3452201000104667e-08  2.9704984310323227e-04 4.6952350234267881e-03 -4.5112158882833587e-08  2.4994426472635487e-04 5.7694417724137607e-03 -4.5301752549249553e-08  1.9824359854989744e-04 6.6495483235869549e-03 -4.4042787445084157e-08  1.4313182768732255e-04 7.3198264215170259e-03 -4.1390783516388855e-08  8.5871052119508055e-05 7.7693530376945425e-03 -3.7433675711359348e-08  2.7772585647360385e-05 7.9922605159802474e-03 -3.2289762823936348e-08  -2.9833074155146810e-05 7.9878709462725579e-03 -2.6104964749939181e-08  -8.5626715327136741e-05 7.7607116891572382e-03 -1.9049445735867983e-08  -1.3833062246812439e-04 7.3204116959520484e-03 -1.1313678477061577e-08  -1.8673783733793599e-04 6.6814809985303210e-03 -3.1040271553944141e-09  -2.2973979913604089e-04 5.8629784187168386e-03 5.3621320431196260e-09  -2.6635173156011865e-04 4.8880751063516458e-03 1.3862178887949325e-08  -2.9573519061660967e-04 3.7835238952079564e-03 2.2173516587233611e-08  -3.1721730464734138e-04 2.5790466820210505e-03 3.0257504344599095e-08  -3.3030515059504970e-04 1.3066600280742791e-03 3.5817594031902225e-08  -3.3455837974516271e-04 2.3469572460397857e-18 7.4351289794201926e-19  2.8161153063764005e-18 2.4775143994821859e-18 3.4738476624277976e-18  -3.4117690085942510e-05 -1.1218642435976491e-04 3.4913767854867574e-09  -6.6779744782167761e-05 -4.4318396618383475e-04 9.2034704622944632e-09  -9.7234829210993839e-05 -9.8094773893005411e-04 1.6041904126123366e-08  -1.2478585145920596e-04 -1.7087352012747381e-03 2.3499909332079111e-08  -1.4880188381106088e-04 -2.6054525905944057e-03 3.1384830860333408e-08  -1.6873294210317626e-04 -3.6461375792303072e-03 3.9509695149575119e-08  -1.8412259084881236e-04 -4.8025308794323977e-03 4.7683651172381650e-08  -1.9461839617098621e-04 -6.0437233977367229e-03 5.5714270402541402e-08  -1.9997999685091576e-04 -7.3368640756872276e-03 6.3411768923512906e-08  -2.0008460877163722e-04 -8.6479122033404597e-03 7.0593302542842345e-08  -1.9492983676304990e-04 -9.9424169766939886e-03 7.7087130379912464e-08  -1.8463372945758463e-04 -1.1186306446585045e-02 8.2736525737752891e-08  -1.6943207588514359e-04 -1.2346667791575344e-02 8.7403347419932578e-08  -1.4967300572516805e-04 -1.3392501045896590e-02 9.0971186364206036e-08  -1.2580901688318140e-04 -1.4295429021609928e-02 9.3348012523570719e-08  -9.8386612944795549e-05 -1.5030347167209659e-02 9.4468273036376221e-08  -6.8033787832626614e-05 -1.5575998480395663e-02 9.4294386180642105e-08  -3.5445644295162371e-05 -1.5915460309119635e-02 9.2817591034633777e-08  -1.3684755430515356e-06 -1.6036531892910946e-02 9.0058136243498601e-08  3.3417325433250045e-05 -1.5932013769357010e-02 8.6064813658209034e-08  6.8115137442718171e-05 -1.5599872647093737e-02 8.0913839079884555e-08  1.0193035430614991e-04 -1.5043287969667092e-02 7.4707104563321315e-08  1.3408858192043120e-04 -1.4270579103969323e-02 6.7569851204814371e-08  1.6385337245536721e-04 -1.3295014820630731e-02 5.9647801355537512e-08  1.9054308956604370e-04 -1.2134509429403407e-02 5.1103826381985611e-08  2.1354651838692158e-04 -1.0811212528148637e-02 4.2114223413554311e-08  2.3233686279742474e-04 -9.3510017605607735e-03 3.2864689312150799e-08  2.4648380942533842e-04 -7.7828901990133568e-03 2.3546081587360380e-08  2.5566338215402077e-04 -6.1383619237769397e-03 1.4350058456312103e-08  2.5966536141726457e-04 -4.4506510142818404e-03 5.4647070335768101e-09  2.5839809838476763e-04 -2.7539804641055115e-03 -2.9297483603336055e-09  2.5189061378923721e-04 -1.0827784490987325e-03 -1.0665051541211306e-08  2.4029193332829519e-04 5.2911010330651022e-04 -1.7588747741652372e-08  2.2386767487010882e-04 2.0491985879649887e-03 -2.3567652125999090e-08  2.0299396560916812e-04 3.4471026893165722e-03 -2.8490874658337551e-08  1.7814882847683218e-04 4.6952362046932079e-03 -3.2272333457160241e-08  1.4990123506474143e-04 5.7694427887798674e-03 -3.4852698044098836e-08  1.1889807574153033e-04 6.6495491517762316e-03 -3.6200717810033324e-08  8.5849345396644158e-05 7.3198270425628631e-03 -3.6313906896920832e-08  5.1511884046852767e-05 7.7693534373738608e-03 -3.5218569657022530e-08  1.6672044626707547e-05 7.9922606851394046e-03 -3.2969163435509598e-08  -1.7872315070210401e-05 7.9878708810369389e-03 -2.9647017160838179e-08  -5.1330103929180222e-05 7.7607113910202960e-03 -2.5358433156998331e-08  -8.2935114094536192e-05 7.3204111717406501e-03 -2.0232214707838307e-08  -1.1196356768009791e-04 6.6814802602487662e-03 -1.4416666695150620e-08  -1.3775069182756595e-04 5.8629774832765161e-03 -8.0760949388630209e-09  -1.5970594252468360e-04 4.8880739950755790e-03 -1.3865067179536549e-09  -1.7732652602692244e-04 3.7835226352781826e-03 5.4701449469888982e-09  -1.9020888529579588e-04 2.5790452941339883e-03 1.2336213686018044e-08  -1.9805765027879849e-04 1.3066579757355309e-03 1.8016989544352885e-08  -2.0061872422391205e-04 1.4828695355576829e-18 3.3401482488642968e-18  3.7225093794770645e-19 2.0005820893581558e-18 1.6112740613356820e-18  -1.1367980848078059e-05 -1.1218782106400075e-04 1.7866435634138053e-09  -2.2253357237975165e-05 -4.4318632076091889e-04 5.1297789783865756e-09  -3.2403137147566668e-05 -9.8095085735200012e-04 9.5573688200036782e-09  -4.1585092896822819e-05 -1.7087390166820233e-03 1.4816228855757205e-08  -4.9588955431175582e-05 -2.6054570154602969e-03 2.0778199210503943e-08  -5.6231430688136113e-05 -3.6461425122192759e-03 2.7300155254637671e-08  -6.1360401573356784e-05 -4.8025362075749594e-03 3.4226420057318812e-08  -6.4858411346336287e-05 -6.0437289990151431e-03 4.1391464092416369e-08  -6.6645353504475106e-05 -7.3368698218285958e-03 4.8623632782981561e-08  -6.6680306277069955e-05 -8.6479179627544991e-03 5.5749043287852688e-08  -6.4962469762392782e-05 -9.9424226174862872e-03 6.2595544126739132e-08  -6.1531184246709053e-05 -1.1186311839578075e-02 6.8996636573244551e-08  -5.6465029280096633e-05 -1.2346672813265897e-02 7.4795268821362365e-08  -4.9880024144392523e-05 -1.3392505581284835e-02 7.9847416222033276e-08  -4.1926970926022122e-05 -1.4295432966832659e-02 8.4025363327599395e-08  -3.2788001032374800e-05 -1.5030350431918939e-02 8.7220615648716823e-08  -2.2672404244686393e-05 -1.5576000989827875e-02 8.9346376749245256e-08  -1.1811835831209095e-05 -1.5915462005807249e-02 9.0339524164982795e-08  -4.5501147008746143e-07 -1.6036532737999130e-02 9.0162047440558944e-08  1.1137988529986699e-05 -1.5932013743493980e-02 8.8801913909909161e-08  2.2701675263337154e-05 -1.5599871750871130e-02 8.6273341731671706e-08  3.3971231119736546e-05 -1.5043286223610291e-02 8.2616474111507602e-08  4.4688574303116554e-05 -1.4270576548064479e-02 7.7896462140115667e-08  5.4608269095828306e-05 -1.3295011513410816e-02 7.2201975858302352e-08  6.3503146523944092e-05 -1.2134505446606499e-02 6.5643177595937370e-08  7.1169506701307563e-05 -1.0811207960984587e-02 5.8349208069364490e-08  7.7431783706450916e-05 -9.3509967136214678e-03 5.0465238292271927e-08  8.2146566167402521e-05 -7.7828847878778805e-03 4.2149157431056949e-08  8.5205881493079466e-05 -6.1383562723649754e-03 3.3567970308549046e-08  8.6539668527404462e-05 -4.4506452520153726e-03 2.4893988120881015e-08  8.6117382003373164e-05 -2.7539747229452590e-03 1.6300899878967696e-08  8.3948692053335106e-05 -1.0827728605220929e-03 7.9598152305829820e-09  8.0083262756100906e-05 5.2911541131644372e-04 3.5366344305412517e-11  7.4609614795272989e-05 2.0492034938503481e-03 -7.3180391763380476e-09  6.7653098271408762e-05 3.4471070807283897e-03 -1.3959729455149935e-08  5.9373022093312615e-05 4.6952399810642892e-03 -1.9765963415690880e-08  4.9959005687673491e-05 5.7694458636283787e-03 -2.4632736767195041e-08  3.9626636570561118e-05 6.6495514546845687e-03 -2.8478133408113548e-08  2.8612533238267472e-05 7.3198285207926759e-03 -3.1244171140137515e-08  1.7168926434130320e-05 7.7693540570719583e-03 -3.2898096775020984e-08  5.5578828744283819e-06 7.9922604321136445e-03 -3.3433102756626830e-08  -5.9546962711035079e-06 7.9878697610813454e-03 -3.2868448203562694e-08  -1.7105164713649204e-05 7.7607094297820443e-03 -3.1248981825157555e-08  -2.7638168742473552e-05 7.3204084141330443e-03 -2.8644077709742459e-08  -3.7312495008173284e-05 6.6814767694222451e-03 -2.5146004310780720e-08  -4.5906594487740398e-05 5.8629733391774401e-03 -2.0867753089069646e-08  -5.3223656091644455e-05 4.8880692924996019e-03 -1.5940267665792512e-08  -5.9096113275729716e-05 3.7835174830400196e-03 -1.0507222509469222e-08  -6.3389448730795698e-05 2.5790398228566127e-03 -4.7493663720417695e-09  -6.6005456792093465e-05 1.3066515809301547e-03 7.3178381387569752e-10  -6.6864572243642909e-05 1.7536274456882622e-18 3.5380430619191051e-18  2.0775479621162331e-18 2.0667031774613974e-18 3.1347392872879221e-19  1.1363820013374035e-05 -1.1219088304944315e-04 3.4060240636170969e-10  2.2246852085677404e-05 -4.4319092027475824e-04 1.3381726785917716e-09  3.2394403612651481e-05 -9.8095683918463937e-04 3.3969993130231658e-09  4.1574327751934410e-05 -1.7087462492033397e-03 6.4918855680486122e-09  4.9576395070482508e-05 -2.6054653328842882e-03 1.0557807005650758e-08  5.6217352383219630e-05 -3.6461517240693273e-03 1.5494913374908316e-08  6.1345116334704541e-05 -4.8025461028927633e-03 2.1182286946221004e-08  6.4842256825865601e-05 -6.0437393511910348e-03 2.7481095333229528e-08  6.6628686221818355e-05 -7.3368803937905796e-03 3.4237828441350584e-08  6.6663493419513061e-05 -8.6479285123972557e-03 4.1287796217109731e-08  6.4945880743463467e-05 -9.9424329032153560e-03 4.8458879078621315e-08  6.1515182216106973e-05 -1.1186321625843456e-02 5.5575449488775069e-08  5.6449962780592522e-05 -1.2346681875955079e-02 6.2462374468682428e-08  4.9866219105514141e-05 -1.3392513712855606e-02 6.8949010565252112e-08  4.1914723178295248e-05 -1.4295439981067012e-02 7.4873097441253680e-08  3.2777569514518134e-05 -1.5030356168185658e-02 8.0084458664827079e-08  2.2664005058921406e-05 -1.5576005316763215e-02 8.4448430891456968e-08  1.1805637281415505e-05 -1.5915464824320987e-02 8.7848937543181640e-08  4.5113019826856479e-07 -1.6036533983545761e-02 9.0191142106252742e-08  -1.1139490220519952e-05 -1.5932013387550660e-02 9.1403613855064277e-08  -2.2700790836805679e-05 -1.5599869801588707e-02 9.1439961210489442e-08  -3.3968009957091362e-05 -1.5043282725629737e-02 9.0279894505526334e-08  -4.4683120567054196e-05 -1.4270571581492041e-02 8.7929690332244724e-08  -5.4600739339705674e-05 -1.3295005191985450e-02 8.4422052391914988e-08  -6.3493746095887244e-05 -1.2134497915093693e-02 7.9815366700060920e-08  -7.1158485028128892e-05 -1.0811199391862317e-02 7.4192374447383454e-08  -7.7419428565406089e-05 -9.3509873031292767e-03 6.7658285610390389e-08  -8.2133197076358523e-05 -7.7828747515232147e-03 6.0338380263457498e-08  -8.5191842371354384e-05 -6.1383458399883522e-03 5.2375155122534490e-08  -8.6525319794312087e-05 -4.4506346625263300e-03 4.3925073906024072e-08  -8.6103092295624782e-05 -2.7539642188512928e-03 3.5155003480308878e-08  -8.3934829751996156e-05 -1.0827626823751921e-03 2.6238410956209841e-08  -8.0070187516820970e-05 5.2912503042881146e-04 1.7351412685283506e-08  -7.4597669275145183e-05 2.0492123336429309e-03 8.6687641581687426e-09  -6.7642600242725167e-05 3.4471149387630571e-03 3.5988264896604514e-10  -5.9364257124695927e-05 4.6952466773857639e-03 -7.4150058615146188e-09  -4.9952220560265600e-05 5.7694512448857741e-03 -1.4508508375369117e-08  -3.9622033580122110e-05 6.6495553976423641e-03 -2.0789410274494215e-08  -2.8610265514057476e-05 7.3198309351538626e-03 -2.6145649593091740e-08  -1.7169094381941940e-05 7.7693548875455700e-03 -3.0486850453961920e-08  -5.5605318247884087e-06 7.9922596596807491e-03 -3.3746359918371718e-08  5.9495771552818426e-06 7.9878674034308331e-03 -3.5882739309637596e-08  1.7097642244657076e-05 7.7607055409055301e-03 -3.6880676463721958e-08  2.7628364234785386e-05 7.3204030830881783e-03 -3.6751300799237822e-08  3.7300581558429592e-05 6.6814701182932711e-03 -3.5531893179552310e-08  4.5892793067841487e-05 5.8629655202822317e-03 -3.3285018845790696e-08  5.3208230614151666e-05 4.8880604848209859e-03 -3.0097251208267646e-08  5.9079364405131458e-05 3.7835078885083682e-03 -2.6075702945567641e-08  6.3371743715184272e-05 2.5790296803046538e-03 -2.1382194050632365e-08  6.5986595600217070e-05 1.3066402963914760e-03 -1.6170893977341368e-08  6.6836023685912357e-05 8.2604142857995663e-19 3.4216970413746051e-18  1.4595576602949993e-18 2.0565958612288103e-18 7.4925741616392649e-19  3.4114122161101390e-05 -1.1219485821511784e-04 -5.8375522023715844e-10  6.6774704019196572e-05 -4.4319654781326993e-04 -1.8020061183749749e-09  9.7228224647801526e-05 -9.8096412084076987e-04 -1.9690416403908109e-09  1.2477783347834948e-04 -1.7087550205794431e-03 -9.1399254203962722e-10  1.4879262595052191e-04 -2.6054753929769595e-03 1.3589649259667352e-09  1.6872264599803642e-04 -3.6461628424948431e-03 4.7909126044125337e-09  1.8411148089903491e-04 -4.8025580250312247e-03 9.2938663063702146e-09  1.9460671441611811e-04 -6.0437518040169251e-03 1.4754443373254237e-08  1.9996799738581733e-04 -7.3368930921252594e-03 2.1036636843238979e-08  2.0007255189203026e-04 -8.6479411654397428e-03 2.7984928997821421e-08  1.9491798297189509e-04 -9.9424452212014194e-03 3.5427833056293837e-08  1.8462233346930936e-04 -1.1186333326683470e-02 4.3181800490694284e-08  1.6942138076562590e-04 -1.2346692691690808e-02 5.1055405582029812e-08  1.4966323730096899e-04 -1.3392523395798810e-02 5.8853713159856554e-08  1.2580037854825483e-04 -1.4295448309471898e-02 6.6382730258189479e-08  9.8379280984552846e-05 -1.5030362951325565e-02 7.3453832751968881e-08  6.8027907372015094e-05 -1.5576010399299556e-02 7.9888070863085224e-08  3.5441325962258028e-05 -1.5915468089860049e-02 8.5520260404163668e-08  1.3657929264001761e-06 -1.6036535357304451e-02 9.0202761702781023e-08  -3.3418337475538973e-05 -1.5932012838070060e-02 9.3808853689287724e-08  -6.8114483583219277e-05 -1.5599867341451697e-02 9.6235634561706112e-08  -1.0192807864083158e-04 -1.5043278411175915e-02 9.7406377235206938e-08  -1.3408476695454157e-04 -1.4270565511525685e-02 9.7272285332372923e-08  -1.6384813720824733e-04 -1.3294997505513655e-02 9.5813615805996259e-08  -1.9053658683504396e-04 -1.2134488788142604e-02 9.3040136006441747e-08  -2.1353893123449152e-04 -1.0811189033446394e-02 8.8990910504912763e-08  -2.3232840034288166e-04 -9.3509759504639967e-03 8.3733414639811107e-08  -2.4647470203625731e-04 -7.7828626645932916e-03 7.7361997614653115e-08  -2.5565387614870513e-04 -6.1383332955937432e-03 6.9995740146142085e-08  -2.5965571339841827e-04 -4.4506219479431598e-03 6.1775739273227990e-08  -2.5838856933437041e-04 -2.7539516252533766e-03 5.2861898134356784e-08  -2.5188146306088886e-04 -1.0827504981654312e-03 4.3429280806789401e-08  -2.4028341267424391e-04 5.2913652622272635e-04 3.3664125586927539e-08  -2.2386002263918614e-04 2.0492228777584743e-03 2.3759603212019356e-08  -2.0298740124928004e-04 3.4471242897319582e-03 1.3911417552852439e-08  -1.7814354746776144e-04 4.6952546210635542e-03 4.3133507038660846e-09  -1.4989740439752590e-04 5.7694575993561554e-03 -4.8471470039755351e-09  -1.1889583004769145e-04 6.6495600173829446e-03 -1.3393220609619957e-08  -8.5848783816726363e-05 7.3198337143688882e-03 -2.1162629124493759e-08  -5.1513067909783807e-05 7.7693557625886376e-03 -2.8011428022025205e-08  -1.6674995992892937e-05 7.9922586105124344e-03 -3.3817233869780635e-08  1.7867613968296055e-05 7.9878644540778698e-03 -3.8481991148697051e-08  5.1323710335824798e-05 7.7607007589095131e-03 -4.1934180898294370e-08  8.2927123477067113e-05 7.3203965779602576e-03 -4.4130424030472270e-08  1.1195411160075637e-04 6.6814620390053762e-03 -4.5056446453720967e-08  1.3773993498519924e-04 5.8629560518564435e-03 -4.4727436863349337e-08  1.5969407907796162e-04 4.8880498440590867e-03 -4.3188150854959386e-08  1.7731377664164850e-04 3.7834963188267913e-03 -4.0512616728858970e-08  1.9019548037607382e-04 2.5790174570143520e-03 -3.6817790629273203e-08  1.9804367576443986e-04 1.3066269765734228e-03 -3.2042420142502796e-08  2.0060341501763182e-04 1.1361299139612836e-18 3.4678905196591178e-18  2.7811272202025162e-19 1.9612241555285241e-18 1.3169381342293921e-18  5.6924128484994798e-05 -1.1219692920854214e-04 -1.4559436122874458e-09  1.1139108982627495e-04 -4.4319940949565740e-04 -4.8839584041931424e-09  1.6217781354739170e-04 -9.8096790002640921e-04 -7.1988824552500692e-09  2.0812168496419107e-04 -1.7087596317376015e-03 -8.1123396209339850e-09  2.4817056643908658e-04 -2.6054807303712273e-03 -7.5656305080119782e-09  2.8140731003585074e-04 -3.6461687838940876e-03 -5.5784023273145787e-09  3.0707076926985702e-04 -4.8025644343728750e-03 -2.2070947420618082e-09  3.2457323138820112e-04 -6.0437585345222240e-03 2.4591503792017357e-09  3.3351387648849335e-04 -7.3368999896605714e-03 8.3008237280094103e-09  3.3368795659239898e-04 -8.6479480720462847e-03 1.5170800918254263e-08  3.2509148452680757e-04 -9.9424519787125205e-03 2.2897693129378816e-08  3.0792132524495619e-04 -1.1186339780347460e-02 3.1289751706401385e-08  2.8257068747031028e-04 -1.2346698693713642e-02 4.0139242774724779e-08  2.4962011892055628e-04 -1.3392528808729657e-02 4.9227186483689695e-08  2.0982421134690905e-04 -1.4295453009350640e-02 5.8328361771541490e-08  1.6409431981381943e-04 -1.5030366830521375e-02 6.7216447625596914e-08  1.1347769198536175e-04 -1.5576013368975822e-02 7.5669186641057312e-08  5.9133485406760229e-