<?xml version="1.0"?>
<VTKFile type="UnstructuredGrid"  version="0.1"  >
<UnstructuredGrid>
<Piece  NumberOfPoints="1872" NumberOfCells="7650">
<Points>
<DataArray  type="Float64"  NumberOfComponents="3"  format="ascii">0 0 0  0.0196078431372549 0 0  0.0392156862745098 0 0  0.05882352941176471 0 0  0.07843137254901961 0 0  0.09803921568627451 0 0  0.1176470588235294 0 0  0.1372549019607843 0 0  0.1568627450980392 0 0  0.1764705882352941 0 0  0.196078431372549 0 0  0.2156862745098039 0 0  0.2352941176470588 0 0  0.2549019607843137 0 0  0.2745098039215687 0 0  0.2941176470588235 0 0  0.3137254901960784 0 0  0.3333333333333333 0 0  0.3529411764705883 0 0  0.3725490196078431 0 0  0.392156862745098 0 0  0.4117647058823529 0 0  0.4313725490196079 0 0  0.4509803921568628 0 0  0.4705882352941176 0 0  0.4901960784313725 0 0  0.5098039215686274 0 0  0.5294117647058824 0 0  0.5490196078431373 0 0  0.5686274509803921 0 0  0.5882352941176471 0 0  0.6078431372549019 0 0  0.6274509803921569 0 0  0.6470588235294118 0 0  0.6666666666666666 0 0  0.6862745098039216 0 0  0.7058823529411765 0 0  0.7254901960784313 0 0  0.7450980392156863 0 0  0.7647058823529411 0 0  0.7843137254901961 0 0  0.803921568627451 0 0  0.8235294117647058 0 0  0.8431372549019608 0 0  0.8627450980392157 0 0  0.8823529411764706 0 0  0.9019607843137255 0 0  0.9215686274509803 0 0  0.9411764705882353 0 0  0.9607843137254902 0 0  0.9803921568627451 0 0  1 0 0  0 0.002 0  0.0196078431372549 0.002 0  0.0392156862745098 0.002 0  0.05882352941176471 0.002 0  0.07843137254901961 0.002 0  0.09803921568627451 0.002 0  0.1176470588235294 0.002 0  0.1372549019607843 0.002 0  0.1568627450980392 0.002 0  0.1764705882352941 0.002 0  0.196078431372549 0.002 0  0.2156862745098039 0.002 0  0.2352941176470588 0.002 0  0.2549019607843137 0.002 0  0.2745098039215687 0.002 0  0.2941176470588235 0.002 0  0.3137254901960784 0.002 0  0.3333333333333333 0.002 0  0.3529411764705883 0.002 0  0.3725490196078431 0.002 0  0.392156862745098 0.002 0  0.4117647058823529 0.002 0  0.4313725490196079 0.002 0  0.4509803921568628 0.002 0  0.4705882352941176 0.002 0  0.4901960784313725 0.002 0  0.5098039215686274 0.002 0  0.5294117647058824 0.002 0  0.5490196078431373 0.002 0  0.5686274509803921 0.002 0  0.5882352941176471 0.002 0  0.6078431372549019 0.002 0  0.6274509803921569 0.002 0  0.6470588235294118 0.002 0  0.6666666666666666 0.002 0  0.6862745098039216 0.002 0  0.7058823529411765 0.002 0  0.7254901960784313 0.002 0  0.7450980392156863 0.002 0  0.7647058823529411 0.002 0  0.7843137254901961 0.002 0  0.803921568627451 0.002 0  0.8235294117647058 0.002 0  0.8431372549019608 0.002 0  0.8627450980392157 0.002 0  0.8823529411764706 0.002 0  0.9019607843137255 0.002 0  0.9215686274509803 0.002 0  0.9411764705882353 0.002 0  0.9607843137254902 0.002 0  0.9803921568627451 0.002 0  1 0.002 0  0 0.004 0  0.0196078431372549 0.004 0  0.0392156862745098 0.004 0  0.05882352941176471 0.004 0  0.07843137254901961 0.004 0  0.09803921568627451 0.004 0  0.1176470588235294 0.004 0  0.1372549019607843 0.004 0  0.1568627450980392 0.004 0  0.1764705882352941 0.004 0  0.196078431372549 0.004 0  0.2156862745098039 0.004 0  0.2352941176470588 0.004 0  0.2549019607843137 0.004 0  0.2745098039215687 0.004 0  0.2941176470588235 0.004 0  0.3137254901960784 0.004 0  0.3333333333333333 0.004 0  0.3529411764705883 0.004 0  0.3725490196078431 0.004 0  0.392156862745098 0.004 0  0.4117647058823529 0.004 0  0.4313725490196079 0.004 0  0.4509803921568628 0.004 0  0.4705882352941176 0.004 0  0.4901960784313725 0.004 0  0.5098039215686274 0.004 0  0.5294117647058824 0.004 0  0.5490196078431373 0.004 0  0.5686274509803921 0.004 0  0.5882352941176471 0.004 0  0.6078431372549019 0.004 0  0.6274509803921569 0.004 0  0.6470588235294118 0.004 0  0.6666666666666666 0.004 0  0.6862745098039216 0.004 0  0.7058823529411765 0.004 0  0.7254901960784313 0.004 0  0.7450980392156863 0.004 0  0.7647058823529411 0.004 0  0.7843137254901961 0.004 0  0.803921568627451 0.004 0  0.8235294117647058 0.004 0  0.8431372549019608 0.004 0  0.8627450980392157 0.004 0  0.8823529411764706 0.004 0  0.9019607843137255 0.004 0  0.9215686274509803 0.004 0  0.9411764705882353 0.004 0  0.9607843137254902 0.004 0  0.9803921568627451 0.004 0  1 0.004 0  0 0.006 0  0.0196078431372549 0.006 0  0.0392156862745098 0.006 0  0.05882352941176471 0.006 0  0.07843137254901961 0.006 0  0.09803921568627451 0.006 0  0.1176470588235294 0.006 0  0.1372549019607843 0.006 0  0.1568627450980392 0.006 0  0.1764705882352941 0.006 0  0.196078431372549 0.006 0  0.2156862745098039 0.006 0  0.2352941176470588 0.006 0  0.2549019607843137 0.006 0  0.2745098039215687 0.006 0  0.2941176470588235 0.006 0  0.3137254901960784 0.006 0  0.3333333333333333 0.006 0  0.3529411764705883 0.006 0  0.3725490196078431 0.006 0  0.392156862745098 0.006 0  0.4117647058823529 0.006 0  0.4313725490196079 0.006 0  0.4509803921568628 0.006 0  0.4705882352941176 0.006 0  0.4901960784313725 0.006 0  0.5098039215686274 0.006 0  0.5294117647058824 0.006 0  0.5490196078431373 0.006 0  0.5686274509803921 0.006 0  0.5882352941176471 0.006 0  0.6078431372549019 0.006 0  0.6274509803921569 0.006 0  0.6470588235294118 0.006 0  0.6666666666666666 0.006 0  0.6862745098039216 0.006 0  0.7058823529411765 0.006 0  0.7254901960784313 0.006 0  0.7450980392156863 0.006 0  0.7647058823529411 0.006 0  0.7843137254901961 0.006 0  0.803921568627451 0.006 0  0.8235294117647058 0.006 0  0.8431372549019608 0.006 0  0.8627450980392157 0.006 0  0.8823529411764706 0.006 0  0.9019607843137255 0.006 0  0.9215686274509803 0.006 0  0.9411764705882353 0.006 0  0.9607843137254902 0.006 0  0.9803921568627451 0.006 0  1 0.006 0  0 0.008 0  0.0196078431372549 0.008 0  0.0392156862745098 0.008 0  0.05882352941176471 0.008 0  0.07843137254901961 0.008 0  0.09803921568627451 0.008 0  0.1176470588235294 0.008 0  0.1372549019607843 0.008 0  0.1568627450980392 0.008 0  0.1764705882352941 0.008 0  0.196078431372549 0.008 0  0.2156862745098039 0.008 0  0.2352941176470588 0.008 0  0.2549019607843137 0.008 0  0.2745098039215687 0.008 0  0.2941176470588235 0.008 0  0.3137254901960784 0.008 0  0.3333333333333333 0.008 0  0.3529411764705883 0.008 0  0.3725490196078431 0.008 0  0.392156862745098 0.008 0  0.4117647058823529 0.008 0  0.4313725490196079 0.008 0  0.4509803921568628 0.008 0  0.4705882352941176 0.008 0  0.4901960784313725 0.008 0  0.5098039215686274 0.008 0  0.5294117647058824 0.008 0  0.5490196078431373 0.008 0  0.5686274509803921 0.008 0  0.5882352941176471 0.008 0  0.6078431372549019 0.008 0  0.6274509803921569 0.008 0  0.6470588235294118 0.008 0  0.6666666666666666 0.008 0  0.6862745098039216 0.008 0  0.7058823529411765 0.008 0  0.7254901960784313 0.008 0  0.7450980392156863 0.008 0  0.7647058823529411 0.008 0  0.7843137254901961 0.008 0  0.803921568627451 0.008 0  0.8235294117647058 0.008 0  0.8431372549019608 0.008 0  0.8627450980392157 0.008 0  0.8823529411764706 0.008 0  0.9019607843137255 0.008 0  0.9215686274509803 0.008 0  0.9411764705882353 0.008 0  0.9607843137254902 0.008 0  0.9803921568627451 0.008 0  1 0.008 0  0 0.01 0  0.0196078431372549 0.01 0  0.0392156862745098 0.01 0  0.05882352941176471 0.01 0  0.07843137254901961 0.01 0  0.09803921568627451 0.01 0  0.1176470588235294 0.01 0  0.1372549019607843 0.01 0  0.1568627450980392 0.01 0  0.1764705882352941 0.01 0  0.196078431372549 0.01 0  0.2156862745098039 0.01 0  0.2352941176470588 0.01 0  0.2549019607843137 0.01 0  0.2745098039215687 0.01 0  0.2941176470588235 0.01 0  0.3137254901960784 0.01 0  0.3333333333333333 0.01 0  0.3529411764705883 0.01 0  0.3725490196078431 0.01 0  0.392156862745098 0.01 0  0.4117647058823529 0.01 0  0.4313725490196079 0.01 0  0.4509803921568628 0.01 0  0.4705882352941176 0.01 0  0.4901960784313725 0.01 0  0.5098039215686274 0.01 0  0.5294117647058824 0.01 0  0.5490196078431373 0.01 0  0.5686274509803921 0.01 0  0.5882352941176471 0.01 0  0.6078431372549019 0.01 0  0.6274509803921569 0.01 0  0.6470588235294118 0.01 0  0.6666666666666666 0.01 0  0.6862745098039216 0.01 0  0.7058823529411765 0.01 0  0.7254901960784313 0.01 0  0.7450980392156863 0.01 0  0.7647058823529411 0.01 0  0.7843137254901961 0.01 0  0.803921568627451 0.01 0  0.8235294117647058 0.01 0  0.8431372549019608 0.01 0  0.8627450980392157 0.01 0  0.8823529411764706 0.01 0  0.9019607843137255 0.01 0  0.9215686274509803 0.01 0  0.9411764705882353 0.01 0  0.9607843137254902 0.01 0  0.9803921568627451 0.01 0  1 0.01 0  0 0 0.006  0.0196078431372549 0 0.006  0.0392156862745098 0 0.006  0.05882352941176471 0 0.006  0.07843137254901961 0 0.006  0.09803921568627451 0 0.006  0.1176470588235294 0 0.006  0.1372549019607843 0 0.006  0.1568627450980392 0 0.006  0.1764705882352941 0 0.006  0.196078431372549 0 0.006  0.2156862745098039 0 0.006  0.2352941176470588 0 0.006  0.2549019607843137 0 0.006  0.2745098039215687 0 0.006  0.2941176470588235 0 0.006  0.3137254901960784 0 0.006  0.3333333333333333 0 0.006  0.3529411764705883 0 0.006  0.3725490196078431 0 0.006  0.392156862745098 0 0.006  0.4117647058823529 0 0.006  0.4313725490196079 0 0.006  0.4509803921568628 0 0.006  0.4705882352941176 0 0.006  0.4901960784313725 0 0.006  0.5098039215686274 0 0.006  0.5294117647058824 0 0.006  0.5490196078431373 0 0.006  0.5686274509803921 0 0.006  0.5882352941176471 0 0.006  0.6078431372549019 0 0.006  0.6274509803921569 0 0.006  0.6470588235294118 0 0.006  0.6666666666666666 0 0.006  0.6862745098039216 0 0.006  0.7058823529411765 0 0.006  0.7254901960784313 0 0.006  0.7450980392156863 0 0.006  0.7647058823529411 0 0.006  0.7843137254901961 0 0.006  0.803921568627451 0 0.006  0.8235294117647058 0 0.006  0.8431372549019608 0 0.006  0.8627450980392157 0 0.006  0.8823529411764706 0 0.006  0.9019607843137255 0 0.006  0.9215686274509803 0 0.006  0.9411764705882353 0 0.006  0.9607843137254902 0 0.006  0.9803921568627451 0 0.006  1 0 0.006  0 0.002 0.006  0.0196078431372549 0.002 0.006  0.0392156862745098 0.002 0.006  0.05882
[...]
<PointData  Vectors="disp"> 
<DataArray  type="Float64"  Name="disp"  NumberOfComponents="3" format="ascii">0.0000000000000000e+00 0.0000000000000000e+00 0.0000000000000000e+00  -1.9607843154714003e-05 -4.5784105823462971e-14 -1.5179935182289623e-15  -3.9215686307423669e-05 -1.7837618844740512e-13 -5.7485260666283677e-15  -5.8823529458181652e-05 -3.9065779829416800e-13 -1.2469830257536244e-14  -7.8431372606993770e-05 -6.7556718327248962e-13 -2.1468318652667183e-14  -9.8039215753875894e-05 -1.0260668231575003e-12 -3.2531722387338814e-14  -1.1764705889884552e-04 -1.4351725849432089e-12 -4.5440916859175933e-14  -1.3725490204192410e-04 -1.8959491462242902e-12 -5.9978627281578563e-14  -1.5686274518315635e-04 -2.4015280689970298e-12 -7.5937155825750329e-14  -1.7647058832256116e-04 -2.9451455921389720e-12 -9.3114790608745598e-14  -1.9607843146016282e-04 -3.5201182255531657e-12 -1.1130181800139684e-13  -2.1568627459600640e-04 -4.1198576624355930e-12 -1.3029887134064444e-13  -2.3529411773013650e-04 -4.7379033136880322e-12 -1.4990588124173959e-13  -2.5490196086259249e-04 -5.3679357248734331e-12 -1.6992860203393346e-13  -2.7450980399342249e-04 -6.0038191724726527e-12 -1.9016550974512646e-13  -2.9411764712266561e-04 -6.6395735304444763e-12 -2.1040405537186636e-13  -3.1372549025040006e-04 -7.2693827493547073e-12 -2.3044363394616653e-13  -3.3333333337666796e-04 -7.8875680425145742e-12 -2.5010508792342719e-13  -3.5294117650155069e-04 -8.4886905889874050e-12 -2.6921953002872480e-13  -3.7254901962507946e-04 -9.0675146698356205e-12 -2.8760312880056629e-13  -3.9215686274736314e-04 -9.6189957499109408e-12 -3.0508305536812358e-13  -4.1176470586846709e-04 -1.0138345206888873e-11 -3.2151440696761127e-13  -4.3137254898849688e-04 -1.0621089068119470e-11 -3.3676511437339323e-13  -4.5098039210749537e-04 -1.1062989628086264e-11 -3.5069588684499570e-13  -4.7058823522556296e-04 -1.1460071874511171e-11 -3.6318237417797526e-13  -4.9019607834278303e-04 -1.1808596550089250e-11 -3.7412986415433307e-13  -5.0980392145928168e-04 -1.2105192439544800e-11 -3.8344342035510999e-13  -5.2941176457517436e-04 -1.2346818535352186e-11 -3.9107126302122046e-13  -5.4901960769066979e-04 -1.2530717460942583e-11 -3.9698232071621560e-13  -5.6862745080559992e-04 -1.2654336101772073e-11 -4.0109376644130651e-13  -5.8823529392016067e-04 -1.2715447241589038e-11 -4.0328864739360435e-13  -6.0784313703446174e-04 -1.2712261070032470e-11 -4.0349013451654301e-13  -6.2745098014863618e-04 -1.2643416338559421e-11 -4.0162972116925496e-13  -6.4705882326271781e-04 -1.2507832213480691e-11 -3.9764167604457237e-13  -6.6666666637682005e-04 -1.2304789871878773e-11 -3.9147804106109725e-13  -6.8627450949106659e-04 -1.2033981296240783e-11 -3.8311966782065728e-13  -7.0588235260566929e-04 -1.1695569795316630e-11 -3.7257488431395856e-13  -7.2549019572066783e-04 -1.1290127463490127e-11 -3.5986669229511892e-13  -7.4509803883617692e-04 -1.0818636401486165e-11 -3.4500615367220861e-13  -7.6470588195237676e-04 -1.0282516337189991e-11 -3.2803912197742462e-13  -7.8431372506948495e-04 -9.6837084340253483e-12 -3.0905350907170486e-13  -8.0392156818753010e-04 -9.0245828704833208e-12 -2.8814517780077381e-13  -8.2352941130670358e-04 -8.3080198949695244e-12 -2.6540249126154919e-13  -8.4313725442710589e-04 -7.5374211581780357e-12 -2.4092657536641340e-13  -8.6274509754895139e-04 -6.7166871956842749e-12 -2.1484113630072783e-13  -8.8235294067230436e-04 -5.8501654771055783e-12 -1.8729417678072194e-13  -9.0196078379731551e-04 -4.9426890037097072e-12 -1.5839390902181438e-13  -9.2156862692416687e-04 -3.9996909066148996e-12 -1.2826963418939146e-13  -9.4117647005298097e-04 -3.0271543969760165e-12 -9.7135645380606617e-14  -9.6078431318401291e-04 -2.0315262499637145e-12 -6.5227206455797496e-14  -9.8039215631734130e-04 -1.0198967873738114e-12 -3.2775042101695546e-14  -9.9999999945323556e-04 0.0000000000000000e+00 0.0000000000000000e+00  0.0000000000000000e+00 0.0000000000000000e+00 0.0000000000000000e+00  -1.9607843145466091e-05 -4.5784465312595303e-14 -1.5155598833420176e-15  -3.9215686289687294e-05 -1.7837649202362490e-13 -5.7428285545498931e-15  -5.8823529432677206e-05 -3.9065809786005946e-13 -1.2460883569118448e-14  -7.8431372574441346e-05 -6.7556749913502968e-13 -2.1456445442085569e-14  -9.8039215714990563e-05 -1.0260671573102534e-12 -3.2516759694987732e-14  -1.1764705885433691e-04 -1.4351729050002859e-12 -4.5423037674433967e-14  -1.3725490199249825e-04 -1.8959495007992745e-12 -5.9957687430617684e-14  -1.5686274512950678e-04 -2.4015283834034773e-12 -7.5913198362931811e-14  -1.7647058826537488e-04 -2.9451459421953416e-12 -9.3087961870565771e-14  -1.9607843140011558e-04 -3.5201185138884397e-12 -1.1127239212800586e-13  -2.1568627453376506e-04 -4.1198579642909060e-12 -1.3026677173946450e-13  -2.3529411766635448e-04 -4.7379036280745822e-12 -1.4987168082343076e-13  -2.5490196079790579e-04 -5.3679360648403698e-12 -1.6989365427428225e-13  -2.7450980392844577e-04 -6.0038194374942738e-12 -1.9012930835588791e-13  -2.9411764705800021e-04 -6.6395738899711802e-12 -2.1036559248446783e-13  -3.1372549018663564e-04 -7.2693830827230199e-12 -2.3040381906897864e-13  -3.3333333331437556e-04 -7.8875684537487728e-12 -2.5006400408770155e-13  -3.5294117644126682e-04 -8.4886908723977616e-12 -2.6917721604762707e-13  -3.7254901956733198e-04 -9.0675149226335413e-12 -2.8755943063440088e-13  -3.9215686269265478e-04 -9.6189960171050969e-12 -3.0503827181166812e-13  -4.1176470581727145e-04 -1.0138345462277108e-11 -3.2146898974844206e-13  -4.3137254894125521e-04 -1.0621089323960328e-11 -3.3671896856992849e-13  -4.5098039206462374e-04 -1.1062989805959998e-11 -3.5064895596358612e-13  -4.7058823518746323e-04 -1.1460072126853908e-11 -3.6313445012076058e-13  -4.9019607830981852e-04 -1.1808596817048687e-11 -3.7408210825477184e-13  -5.0980392143176647e-04 -1.2105192432482502e-11 -3.8339823386294072e-13  -5.2941176455341692e-04 -1.2346818809852229e-11 -3.9102907923887889e-13  -5.4901960767493358e-04 -1.2530717751171058e-11 -3.9694264955428787e-13  -5.6862745079613972e-04 -1.2654336671608008e-11 -4.0105527924052859e-13  -5.8823529391717401e-04 -1.2715447476969049e-11 -4.0325188779542611e-13  -6.0784313703811323e-04 -1.2712261082187080e-11 -4.0345819485055744e-13  -6.2745098015904235e-04 -1.2643416466914860e-11 -4.0160248677738145e-13  -6.4705882327997604e-04 -1.2507832410258710e-11 -3.9761891284787322e-13  -6.6666666640098377e-04 -1.2304789945411428e-11 -3.9146006700670370e-13  -6.8627450952214459e-04 -1.2033981228581399e-11 -3.8310447348733441e-13  -7.0588235264362352e-04 -1.1695569862771976e-11 -3.7256114829720957e-13  -7.2549019576541383e-04 -1.1290127460799722e-11 -3.5985657604028528e-13  -7.4509803888759814e-04 -1.0818636485114285e-11 -3.4499950609535354e-13  -7.6470588201030623e-04 -1.0282516329576973e-11 -3.2803403537130060e-13  -7.8431372513369118e-04 -9.6837084515207773e-12 -3.0904882716506665e-13  -8.0392156825775745e-04 -9.0245828054559209e-12 -2.8814177662370333e-13  -8.2352941138262418e-04 -8.3080200369934726e-12 -2.6540132207526981e-13  -8.4313725450835112e-04 -7.5374214174339866e-12 -2.4092623830178082e-13  -8.6274509763509700e-04 -6.7166871565290982e-12 -2.1484356373153065e-13  -8.8235294076288663e-04 -5.8501651116754220e-12 -1.8729910757071437e-13  -9.0196078389180936e-04 -4.9426889570719734e-12 -1.5839766574011826e-13  -9.2156862702198977e-04 -3.9996906884536773e-12 -1.2827639652738154e-13  -9.4117647015350310e-04 -3.0271541603199797e-12 -9.7142623449807457e-14  -9.6078431328653778e-04 -2.0315260693300861e-12 -6.5231675063100831e-14  -9.8039215642111550e-04 -1.0198963164164019e-12 -3.2775503773251622e-14  -9.9999999955742197e-04 0.0000000000000000e+00 0.0000000000000000e+00  0.0000000000000000e+00 0.0000000000000000e+00 0.0000000000000000e+00  -1.9607843136258677e-05 -4.5785449430011663e-14 -1.5129864441892522e-15  -3.9215686271990715e-05 -1.7837768196908412e-13 -5.7369822314786448e-15  -5.8823529407212671e-05 -3.9065930106590772e-13 -1.2451811608060384e-14  -7.8431372541928047e-05 -6.7556867829647192e-13 -2.1444414098645802e-14  -9.8039215676144534e-05 -1.0260683202508343e-12 -3.2501655016304265e-14  -1.1764705880986706e-04 -1.4351740505173002e-12 -4.5404976285414660e-14  -1.3725490194311000e-04 -1.8959506717603316e-12 -5.9936630279565611e-14  -1.5686274507589458e-04 -2.4015295555216946e-12 -7.5889112947408430e-14  -1.7647058820822499e-04 -2.9451470751019045e-12 -9.3060940638682379e-14  -1.9607843134010621e-04 -3.5201195585893460e-12 -1.1124279829015794e-13  -2.1568627447156121e-04 -4.1198590658122009e-12 -1.3023454888400428e-13  -2.3529411760260811e-04 -4.7379046945881443e-12 -1.4983732515977224e-13  -2.5490196073325367e-04 -5.3679371285427190e-12 -1.6985855733262483e-13  -2.7450980386350461e-04 -6.0038205291549376e-12 -1.9009295074920979e-13  -2.9411764699337081e-04 -6.6395751073375027e-12 -2.1032703013570555e-13  -3.1372549012290417e-04 -7.2693840496532168e-12 -2.3036384208088290e-13  -3.3333333325211070e-04 -7.8875693397253349e-12 -2.5002269711082006e-13  -3.5294117638101494e-04 -8.4886918160502415e-12 -2.6913471831471482e-13  -3.7254901950961350e-04 -9.0675158522349642e-12 -2.8751554720751441e-13  -3.9215686263797256e-04 -9.6189967967052854e-12 -3.0499334372042886e-13  -4.1176470576610079e-04 -1.0138346259814340e-11 -3.2142334282119635e-13  -4.3137254889403869e-04 -1.0621090049906891e-11 -3.3667275024591028e-13  -4.5098039202177628e-04 -1.1062990433529536e-11 -3.5060173872148266e-13  -4.7058823514938323e-04 -1.1460072737314949e-11 -3.6308643369268200e-13  -4.9019607827687113e-04 -1.1808597370989108e-11 -3.7403425878314723e-13  -5.0980392140427208e-04 -1.2105193014245846e-11 -3.8335269220973645e-13  -5.2941176453168875e-04 -1.2346819401031887e-11 -3.9098686134017695e-13  -5.4901960765921329e-04 -1.2530718327028075e-11 -3.9690289987247319e-13  -5.6862745078669111e-04 -1.2654337301374416e-11 -4.0101664023152978e-13  -5.8823529391419701e-04 -1.2715447827324858e-11 -4.0321510035294316e-13  -6.0784313704177056e-04 -1.2712261145162320e-11 -4.0342606338354110e-13  -6.2745098016945828e-04 -1.2643416542091445e-11 -4.0157524420747528e-13  -6.4705882329724000e-04 -1.2507832639934700e-11 -3.9759621779965170e-13  -6.6666666642514933e-04 -1.2304789910322789e-11 -3.9144205386129618e-13  -6.8627450955322368e-04 -1.2033981123808877e-11 -3.8308934567562397e-13  -7.0588235268157309e-04 -1.1695569714598254e-11 -3.7254759006533788e-13  -7.2549019581015668e-04 -1.1290127259123871e-11 -3.5984655593752158e-13  -7.4509803893901328e-04 -1.0818636168162119e-11 -3.4499270983387756e-13  -7.6470588206822517e-04 -1.0282515854832755e-11 -3.2802884162219344e-13  -7.8431372519788657e-04 -9.6837079298668817e-12 -3.0904413889086419e-13  -8.0392156832797136e-04 -9.0245824969305126e-12 -2.8813847406914100e-13  -8.2352941145852311e-04 -8.3080196967932476e-12 -2.6539999593487420e-13  -8.4313725458957066e-04 -7.5374212895693994e-12 -2.4092606571189144e-13  -8.6274509772121387e-04 -6.7166863088597672e-12 -2.1484596359579707e-13  -8.8235294085343540e-04 -5.8501639271358737e-12 -1.8730399588560056e-13  -9.0196078398627124e-04 -4.9426881335362862e-12 -1.5840152553388057e-13  -9.2156862711976898e-04 -3.9996893474677109e-12 -1.2828284566165336e-13  -9.4117647025398555e-04 -3.0271530172059919e-12 -9.7149377153936600e-14  -9.6078431338901733e-04 -2.0315248390295936e-12 -6.5236204690608453e-14  -9.8039215652484372e-04 -1.0198949651721858e-12 -3.2775916717513331e-14  -9.9999999966156718e-04 0.0000000000000000e+00 0.0000000000000000e+00  0.0000000000000000e+00 0.0000000000000000e+00 0.0000000000000000e+00  -1.9607843127063948e-05 -4.5787575935713062e-14 -1.5102858032254816e-15  -3.9215686254306382e-05 -1.7837987430940337e-13 -5.7310332040438104e-15  -5.8823529381760375e-05 -3.9066147469508354e-13 -1.2442668882781535e-14  -7.8431372509426769e-05 -6.7557077601377604e-13 -2.1432293394945535e-14  -9.8039215637309672e-05 -1.0260704568249757e-12 -3.2486465662827370e-14  -1.1764705876540914e-04 -1.4351761532830552e-12 -4.5386788490455721e-14  -1.3725490189373375e-04 -1.8959527966730515e-12 -5.9915471745264122e-14  -1.5686274502229393e-04 -2.4015316215885237e-12 -7.5864927645367959e-14  -1.7647058815108594e-04 -2.9451491572409389e-12 -9.3033865389018312e-14  -1.9607843128010663e-04 -3.5201216175085619e-12 -1.1121315082001714e-13  -2.1568627440936807e-04 -4.1198610442283456e-12 -1.3020222090303889e-13  -2.3529411753887174e-04 -4.7379065212155085e-12 -1.4980287569615998e-13  -2.5490196066861094e-04 -5.3679389544171865e-12 -1.6982330779919919e-13  -2.7450980379857212e-04 -6.0038224954523217e-12 -1.9005660463426008e-13  -2.9411764692875085e-04 -6.6395770528370314e-12 -2.1028852834725664e-13  -3.1372549005917938e-04 -7.2693856658239032e-12 -2.3032378252421335e-13  -3.3333333318985407e-04 -7.8875709649877403e-12 -2.4998129686838372e-13  -3.5294117632076838e-04 -8.4886935978193224e-12 -2.6909219428659967e-13  -3.7254901945190359e-04 -9.0675173808150650e-12 -2.8747162835146302e-13  -3.9215686258329614e-04 -9.6189980974542012e-12 -3.0494826071095044e-13  -4.1176470571493762e-04 -1.0138347574653998e-11 -3.2137756215695238e-13  -4.3137254884682770e-04 -1.0621091366239274e-11 -3.3662661416057852e-13  -4.5098039197893750e-04 -1.1062991695369857e-11 -3.5055444488508895e-13  -4.7058823511130708e-04 -1.1460073703886425e-11 -3.6303828555594760e-13  -4.9019607824392971e-04 -1.1808598350498458e-11 -3.7398640426941407e-13  -5.0980392137678473e-04 -1.2105194061027014e-11 -3.8330723280506863e-13  -5.2941176450996166e-04 -1.2346820352936095e-11 -3.9094445010207829e-13  -5.4901960764349529e-04 -1.2530719079346335e-11 -3.9686307100015870e-13  -5.6862745077724544e-04 -1.2654338244089033e-11 -4.0097801091233949e-13  -5.8823529391122120e-04 -1.2715448330429849e-11 -4.0317820076400214e-13  -6.0784313704543116e-04 -1.2712261394272993e-11 -4.0339377442360887e-13  -6.2745098017986836e-04 -1.2643416598160414e-11 -4.0154788644353974e-13  -6.4705882331450647e-04 -1.2507832821359692e-11 -3.9757338813839863e-13  -6.6666666644931024e-04 -1.2304789631623470e-11 -3.9142387216998256e-13  -6.8627450958430169e-04 -1.2033981021104426e-11 -3.8307411824969352e-13  -7.0588235271951637e-04 -1.1695569210383256e-11 -3.7253393931628378e-13  -7.2549019585490095e-04 -1.1290126876906981e-11 -3.5983643452028205e-13  -7.4509803899042062e-04 -1.0818635705223874e-11 -3.4498580863428029e-13  -7.6470588212613794e-04 -1.0282515041051079e-11 -3.2802353467057482e-13  -7.8431372526207178e-04 -9.6837069376470398e-12 -3.0903927699481531e-13  -8.0392156839817789e-04 -9.0245817337999441e-12 -2.8813512670697084e-13  -8.2352941153441064e-04 -8.3080185646720369e-12 -2.6539853907749641e-13  -8.4313725467078347e-04 -7.5374203254855277e-12 -2.4092617469327738e-13  -8.6274509780732728e-04 -6.7166848067975485e-12 -2.1484805063475315e-13  -8.8235294094397355e-04 -5.8501620860302161e-12 -1.8730869178875259e-13  -9.0196078408072346e-04 -4.9426866096643577e-12 -1.5840575432683252e-13  -9.2156862721753962e-04 -3.9996873397166348e-12 -1.2828896984489427e-13  -9.4117647035445358e-04 -3.0271509157970484e-12 -9.7156277554334257e-14  -9.6078431349148354e-04 -2.0315223799666173e-12 -6.5240677249674116e-14  -9.8039215662855525e-04 -1.0198923439093500e-12 -3.2776327576392920e-14  -9.9999999976569721e-04 0.0000000000000000e+00 0.0000000000000000e+00  0.0000000000000000e+00 0.0000000000000000e+00 0.0000000000000000e+00  -1.9607843117855754e-05 -4.5790399595617212e-14 -1.5073113126353017e-15  -3.9215686236608787e-05 -1.7838249533636451e-13 -5.7248529583516012e-15  -5.8823529356294085e-05 -3.9066406326190518e-13 -1.2433286319623802e-14  -7.8431372476912739e-05 -6.7557335299566734e-13 -2.1419933738862637e-14  -9.8039215598462763e-05 -1.0260730639228406e-12 -3.2471019818429815e-14  -1.1764705872093762e-04 -1.4351786911337885e-12 -4.5368336706099750e-14  -1.3725490184434428e-04 -1.8959553219116691e-12 -5.9894097006797468e-14  -1.5686274496868075e-04 -2.4015340585495305e-12 -7.5840466843831409e-14  -1.7647058809393485e-04 -2.9451516427233531e-12 -9.3006601986753655e-14  -1.9607843122009563e-04 -3.5201240996734516e-12 -1.1118327432642340e-13  -2.1568627434716267e-04 -4.1198634188995912e-12 -1.3016969432664726e-13  -2.3529411747512247e-04 -4.7379087935973297e-12 -1.4976821435986500e-13  -2.5490196060395595e-04 -5.3679411704121499e-12 -1.6978784014255233e-13  -2.7450980373362657e-04 -6.0038247213066051e-12 -1.9002002610053149e-13  -2.9411764686411917e-04 -6.6395793123281127e-12 -2.1024989514527194e-13  -3.1372548999544444e-04 -7.2693876427312997e-12 -2.3028347696084511e-13  -3.3333333312758715e-04 -7.8875729287919496e-12 -2.4993972499131252e-13  -3.5294117626051238e-04 -8.4886956325167553e-12 -2.6904959379607586e-13  -3.7254901939418213e-04 -9.0675192300907886e-12 -2.8742760165512433e-13  -3.9215686252861055e-04 -9.6189997806238200e-12 -3.0490300408173526e-13  -4.1176470566376382e-04 -1.0138349194705170e-11 -3.2133159592623855e-13  -4.3137254879960810e-04 -1.0621092915860521e-11 -3.3658023392904539e-13  -4.5098039193608994e-04 -1.1062993216102017e-11 -3.5050717040578422e-13  -4.7058823507322507e-04 -1.1460075040832830e-11 -3.6298996114922282e-13  -4.9019607821098004e-04 -1.1808599612899631e-11 -3.7393854821346218e-13  -5.0980392134929576e-04 -1.2105195232266672e-11 -3.8326167389974995e-13  -5.2941176448822514e-04 -1.2346821417310829e-11 -3.9090199385341188e-13  -5.4901960762777013e-04 -1.2530719980722452e-11 -3.9682304888761390e-13  -5.6862745076779325e-04 -1.2654339037189732e-11 -4.0093927722649080e-13  -5.8823529390823694e-04 -1.2715448931683028e-11 -4.0314132466985865e-13  -6.0784313704908730e-04 -1.2712261753787483e-11 -4.0336152628289582e-13  -6.2745098019027703e-04 -1.2643416833482503e-11 -4.0152041276505270e-13  -6.4705882333176837e-04 -1.2507833023177855e-11 -3.9755062231036293e-13  -6.6666666647347320e-04 -1.2304789505777972e-11 -3.9140556846549057e-13  -6.8627450961538023e-04 -1.2033980977009219e-11 -3.8305904266789674e-13  -7.0588235275745965e-04 -1.1695568768984178e-11 -3.7252000109135871e-13  -7.2549019589964185e-04 -1.1290126545713480e-11 -3.5982630528949314e-13  -7.4509803904183858e-04 -1.0818635285494745e-11 -3.4497920330142086e-13  -7.6470588218405288e-04 -1.0282514183971008e-11 -3.2801827450781826e-13  -7.8431372532626012e-04 -9.6837059244307626e-12 -3.0903449861481495e-13  -8.0392156846838389e-04 -9.0245807833382572e-12 -2.8813221645980414e-13  -8.2352941161030599e-04 -8.3080172792544629e-12 -2.6539726634549410e-13  -8.4313725475200323e-04 -7.5374189551183628e-12 -2.4092654824997859e-13  -8.6274509789344633e-04 -6.7166832218823485e-12 -2.1485076631161572e-13  -8.8235294103452199e-04 -5.8501600847041516e-12 -1.8731360504295146e-13  -9.0196078417518458e-04 -4.9426845880131657e-12 -1.5841016095447242e-13  -9.2156862731532273e-04 -3.9996850495735495e-12 -1.2829546018471149e-13  -9.4117647045492833e-04 -3.0271483714260013e-12 -9.7163416628214421e-14  -9.6078431359396406e-04 -2.0315195153457343e-12 -6.5245409133157789e-14  -9.8039215673228564e-04 -1.0198892985029509e-12 -3.2776976280361136e-14  -9.9999999986984025e-04 0.0000000000000000e+00 0.0000000000000000e+00  0.0000000000000000e+00 0.0000000000000000e+00 0.0000000000000000e+00  -1.9607843108605107e-05 -4.5792104519508047e-14 -1.5041366321171696e-15  -3.9215686218869458e-05 -1.7838392347281293e-13 -5.7185942868180472e-15  -5.8823529330786752e-05 -3.9066549278658305e-13 -1.2423783956804333e-14  -7.8431372444357427e-05 -6.7557476634827589e-13 -2.1407497308465039e-14  -9.8039215559574301e-05 -1.0260744802306845e-12 -3.2455504299276879e-14  -1.1764705867642508e-04 -1.4351800870846984e-12 -4.5349866485933732e-14  -1.3725490179491488e-04 -1.8959567036844136e-12 -5.9872638074613840e-14  -1.5686274491502817e-04 -2.4015354118212572e-12 -7.5815954309101472e-14  -1.7647058803674503e-04 -2.9451530105239479e-12 -9.2979285006188325e-14  -1.9607843116004544e-04 -3.5201254487692979e-12 -1.1115333581221035e-13  -2.1568627428491925e-04 -4.1198647285694545e-12 -1.3013706251240964e-13  -2.3529411741133742e-04 -4.7379101036241125e-12 -1.4973352566829